 Gaussian 09, Revision E.01,
 Gaussian 09:  ES64L-G09RevE.01 30-Nov-2015

 -----------------
 # mp2/aug-cc-pvdz
 -----------------

 ---------------
 benzox-bp86.log
 ---------------
 Symbolic Z-matrix:
 Charge =  0 Multiplicity = 1

                         Standard orientation:
 ---------------------------------------------------------------------
 Center     Atomic      Atomic             Coordinates (Angstroms)
 Number     Number       Type             X           Y           Z
 ---------------------------------------------------------------------
      1          6           0        1.445472   -0.725416    0.130140
      2          6           0        0.322804   -1.440929   -0.193310
      3          6           0       -0.980518   -0.769553   -0.313940
      4          6           0       -0.980532    0.769537   -0.313950
      5          6           0        0.322787    1.440931   -0.193310
      6          6           0        1.445458    0.725434    0.130140
      7          1           0        2.405784   -1.247604    0.272220
      8          1           0        0.380847   -2.522269   -0.397390
      9          1           0        0.380814    2.522271   -0.397380
     10          1           0        2.405767    1.247636    0.272230
     11          8           0       -1.429760   -0.000004    0.809190
     12          1           0       -1.793993    1.297605   -0.848910
     13          1           0       -1.793976   -1.297625   -0.848900
 ---------------------------------------------------------------------

 SCF Done:  E(RHF) =  -305.515293721     A.U. after   15 cycles
 E2 =    -0.1018856482D+01 EUMP2 =    -0.30653415020226D+03

 The electronic state is 1-A.
 Alpha  occ. eigenvalues --  -20.58730 -11.30798 -11.30741 -11.25722 -11.25642
 Alpha  occ. eigenvalues --  -11.25397 -11.25393  -1.41850  -1.11635  -1.02802
 Alpha  occ. eigenvalues --   -0.95074  -0.85960  -0.81584  -0.72438  -0.68158
 Alpha  occ. eigenvalues --   -0.65109  -0.63164  -0.60184  -0.55729  -0.52936
 Alpha  occ. eigenvalues --   -0.51146  -0.49302  -0.44862  -0.38719  -0.32027
 Alpha virt. eigenvalues --    0.03421   0.04098   0.04104   0.05645   0.05653
 Alpha virt. eigenvalues --    0.06721   0.07599   0.11204   0.11908   0.13006
 Alpha virt. eigenvalues --    0.13638   0.14054   0.14261   0.14808   0.14969

 Mulliken charges:
               1
     1  C    0.589091
     2  C    0.524127
     3  C    0.406752
     4  C    0.406690
     5  C    0.524146
     6  C    0.589068
     7  H   -0.388304
     8  H   -0.384712
     9  H   -0.384718
    10  H   -0.388295
    11  O   -0.924485
    12  H   -0.284683
    13  H   -0.284677
 Sum of Mulliken charges =   0.00000

 Dipole moment (field-independent basis, Debye):
    X=              0.9343    Y=              0.0000    Z=             -1.9277  Tot=              2.1422
 Quadrupole moment (field-independent basis, Debye-Ang):
   XX=            -39.0422   YY=            -36.2126   ZZ=            -46.0955
   XY=             -0.0001   XZ=              4.6237   YZ=              0.0000

 Normal termination of Gaussian 09 at Fri Oct  5 17:30:09 2018.
