 Gaussian 09, Revision E.01,
 Gaussian 09:  ES64L-G09RevE.01 30-Nov-2015

 --------------
 # opt hf/3-21g
 --------------

 -------------
 benzox-hf.log
 -------------
 Symbolic Z-matrix:
 Charge =  0 Multiplicity = 1

 SCF Done:  E(RHF) =  -303.760861931     A.U. after   13 cycles
 SCF Done:  E(RHF) =  -303.766114212     A.U. after   12 cycles
 SCF Done:  E(RHF) =  -303.766803609     A.U. after   12 cycles
 SCF Done:  E(RHF) =  -303.766828317     A.U. after   10 cycles
 Optimization completed.
    -- Stationary point found.

                         Standard orientation:
 ---------------------------------------------------------------------
 Center     Atomic      Atomic             Coordinates (Angstroms)
 Number     Number       Type             X           Y           Z
 ---------------------------------------------------------------------
      1          6           0        1.430557   -0.730356    0.120626
      2          6           0        0.335578   -1.424271   -0.169283
      3          6           0       -0.958669   -0.751553   -0.350559
      4          6           0       -0.958670    0.751552   -0.350559
      5          6           0        0.335576    1.424270   -0.169284
      6          6           0        1.430557    0.730357    0.120626
      7          1           0        2.365004   -1.230555    0.282375
      8          1           0        0.371370   -2.489461   -0.283439
      9          1           0        0.371367    2.489461   -0.283440
     10          1           0        2.365003    1.230557    0.282375
     11          8           0       -1.463253    0.000000    0.818973
     12          1           0       -1.728148    1.274213   -0.879528
     13          1           0       -1.728147   -1.274216   -0.879527
 ---------------------------------------------------------------------

 The electronic state is 1-A.
 Alpha  occ. eigenvalues --  -20.46591 -11.24038 -11.23998 -11.18842 -11.18790
 Alpha  occ. eigenvalues --  -11.18531 -11.18514  -1.39394  -1.12840  -1.03796
 Alpha  occ. eigenvalues --   -0.95560  -0.86614  -0.82148  -0.73942  -0.67783
 Alpha  occ. eigenvalues --   -0.64947  -0.63488  -0.61456  -0.53399  -0.52168
 Alpha  occ. eigenvalues --   -0.51493  -0.49918  -0.43848  -0.39659  -0.32811
 Alpha virt. eigenvalues --    0.10441   0.21202   0.25062   0.31111   0.31488
 Alpha virt. eigenvalues --    0.34679   0.35294   0.36591   0.37791   0.38427
 Alpha virt. eigenvalues --    0.46135   0.47856   0.48350   0.53177   0.72700

 Mulliken charges:
               1
     1  C   -0.233409
     2  C   -0.196024
     3  C   -0.051137
     4  C   -0.051137
     5  C   -0.196024
     6  C   -0.233409
     7  H    0.245785
     8  H    0.248001
     9  H    0.248001
    10  H    0.245785
    11  O   -0.510560
    12  H    0.242064
    13  H    0.242064
 Sum of Mulliken charges =   0.00000

 Dipole moment (field-independent basis, Debye):
    X=              1.3700    Y=              0.0000    Z=             -2.4253  Tot=              2.7855
 Quadrupole moment (field-independent basis, Debye-Ang):
   XX=            -39.1834   YY=            -35.3809   ZZ=            -45.8242
   XY=              0.0000   XZ=              5.3407   YZ=              0.0000

 Normal termination of Gaussian 09 at Fri Oct  5 10:54:54 2018.
