 Gaussian 09, Revision E.01,
 Gaussian 09:  ES64L-G09RevE.01 30-Nov-2015

 ---------------
 # opt hf/sto-3g
 ---------------

 -------------
 benzox-hf.log
 -------------
 Symbolic Z-matrix:
 Charge =  0 Multiplicity = 1

 SCF Done:  E(RHF) =  -301.683645219     A.U. after   12 cycles
 SCF Done:  E(RHF) =  -301.687581262     A.U. after   11 cycles
 SCF Done:  E(RHF) =  -301.687818225     A.U. after   10 cycles
 SCF Done:  E(RHF) =  -301.687835305     A.U. after    9 cycles
 SCF Done:  E(RHF) =  -301.687837761     A.U. after    9 cycles
 Optimization completed.
    -- Stationary point found.

                         Standard orientation:
 ---------------------------------------------------------------------
 Center     Atomic      Atomic             Coordinates (Angstroms)
 Number     Number       Type             X           Y           Z
 ---------------------------------------------------------------------
      1          6           0        1.440463   -0.738497    0.112109
      2          6           0        0.347146   -1.435584   -0.155690
      3          6           0       -0.973674   -0.752337   -0.331219
      4          6           0       -0.973675    0.752336   -0.331219
      5          6           0        0.347144    1.435585   -0.155690
      6          6           0        1.440462    0.738498    0.112109
      7          1           0        2.391548   -1.235729    0.258114
      8          1           0        0.371152   -2.512882   -0.260117
      9          1           0        0.371150    2.512882   -0.260117
     10          1           0        2.391547    1.235731    0.258114
     11          8           0       -1.478771    0.000000    0.788530
     12          1           0       -1.731212    1.286466   -0.903313
     13          1           0       -1.731211   -1.286468   -0.903312
 ---------------------------------------------------------------------

 The electronic state is 1-A.
 Alpha  occ. eigenvalues --  -20.29034 -11.09730 -11.09717 -11.03810 -11.03791
 Alpha  occ. eigenvalues --  -11.03650 -11.03646  -1.34982  -1.06257  -0.97497
 Alpha  occ. eigenvalues --   -0.88921  -0.80684  -0.76170  -0.68059  -0.62827
 Alpha  occ. eigenvalues --   -0.58117  -0.57700  -0.55494  -0.48175  -0.46086
 Alpha  occ. eigenvalues --   -0.44958  -0.43975  -0.35753  -0.33428  -0.27194
 Alpha virt. eigenvalues --    0.23724   0.35414   0.51707   0.57660   0.60273
 Alpha virt. eigenvalues --    0.60573   0.63006   0.67131   0.69556   0.70870
 Alpha virt. eigenvalues --    0.77581   0.81173   0.85313   0.95186   1.00371

 Mulliken charges:
               1
     1  C   -0.060322
     2  C   -0.059882
     3  C    0.016709
     4  C    0.016709
     5  C   -0.059882
     6  C   -0.060322
     7  H    0.066690
     8  H    0.068469
     9  H    0.068469
    10  H    0.066690
    11  O   -0.206776
    12  H    0.071724
    13  H    0.071724
 Sum of Mulliken charges =   0.00000

 Dipole moment (field-independent basis, Debye):
    X=              0.7627    Y=              0.0000    Z=             -1.3425  Tot=              1.5440
 Quadrupole moment (field-independent basis, Debye-Ang):
   XX=            -37.3174   YY=            -34.9912   ZZ=            -40.1228
   XY=              0.0000   XZ=              2.8043   YZ=              0.0000

 Normal termination of Gaussian 09 at Fri Oct  5 10:39:56 2018.
