 Gaussian 09, Revision E.01,
 Gaussian 09:  ES64L-G09RevE.01 30-Nov-2015

 ---------------
 # freq hf/3-21g
 ---------------

 ------------------
 benzox-hf-321g.log
 ------------------
 Symbolic Z-matrix:
 Charge =  0 Multiplicity = 1

                         Standard orientation:
 ---------------------------------------------------------------------
 Center     Atomic      Atomic             Coordinates (Angstroms)
 Number     Number       Type             X           Y           Z
 ---------------------------------------------------------------------
      1          6           0       -1.430558    0.730361    0.120629
      2          6           0       -0.335577    1.424270   -0.169281
      3          6           0        0.958672    0.751549   -0.350561
      4          6           0        0.958671   -0.751551   -0.350561
      5          6           0       -0.335580   -1.424270   -0.169281
      6          6           0       -1.430559   -0.730359    0.120629
      7          1           0       -2.364997    1.230562    0.282369
      8          1           0       -0.371366    2.489460   -0.283441
      9          1           0       -0.371371   -2.489460   -0.283441
     10          1           0       -2.365000   -1.230558    0.282369
     11          8           0        1.463252   -0.000002    0.818969
     12          1           0        1.728150   -1.274212   -0.879531
     13          1           0        1.728153    1.274218   -0.879531
 ---------------------------------------------------------------------

 SCF Done:  E(RHF) =  -303.766828318     A.U. after   13 cycles

 The electronic state is 1-A.
 Alpha  occ. eigenvalues --  -20.46591 -11.24038 -11.23998 -11.18842 -11.18790
 Alpha  occ. eigenvalues --  -11.18531 -11.18514  -1.39394  -1.12840  -1.03796
 Alpha  occ. eigenvalues --   -0.95560  -0.86614  -0.82148  -0.73942  -0.67783
 Alpha  occ. eigenvalues --   -0.64947  -0.63488  -0.61456  -0.53399  -0.52168
 Alpha  occ. eigenvalues --   -0.51493  -0.49918  -0.43847  -0.39659  -0.32811
 Alpha virt. eigenvalues --    0.10441   0.21202   0.25062   0.31111   0.31488
 Alpha virt. eigenvalues --    0.34679   0.35294   0.36591   0.37792   0.38427
 Alpha virt. eigenvalues --    0.46135   0.47856   0.48351   0.53177   0.72700

 Mulliken charges:
               1
     1  C   -0.233410
     2  C   -0.196022
     3  C   -0.051136
     4  C   -0.051136
     5  C   -0.196022
     6  C   -0.233410
     7  H    0.245785
     8  H    0.248001
     9  H    0.248001
    10  H    0.245785
    11  O   -0.510562
    12  H    0.242064
    13  H    0.242063
 Sum of Mulliken charges =   0.00000

 Dipole moment (field-independent basis, Debye):
    X=             -1.3700    Y=              0.0000    Z=             -2.4254  Tot=              2.7856
 Quadrupole moment (field-independent basis, Debye-Ang):
   XX=            -39.1833   YY=            -35.3809   ZZ=            -45.8242
   XY=              0.0000   XZ=             -5.3407   YZ=              0.0000

  Exact polarizability:  62.021   0.000  64.291  -6.718   0.000  25.417
 Approx polarizability:  57.674   0.000  58.742  -4.956   0.000  26.175

                      1                      2                      3
                      A                      A                      A
 Frequencies --    261.3365               317.7912               508.8143
 Red. masses --      4.6957                 3.0181                 2.8172
 Frc consts  --      0.1890                 0.1796                 0.4297
 IR Inten    --      8.0156                 0.5852                15.5870
 Raman Activ --      6.6197                 0.6879                 1.8413

                      4                      5                      6
                      A                      A                      A
 Frequencies --    590.4634               678.6643               691.2704
 Red. masses --      6.2251                 3.8509                 3.2378
 Frc consts  --      1.2787                 1.0450                 0.9116
 IR Inten    --      0.5293                 7.3587                 0.1243
 Raman Activ --      4.9229                 5.3602                 4.0164

                      7                      8                      9
                      A                      A                      A
 Frequencies --    754.4567               849.2403               857.9079
 Red. masses --      3.6697                 1.8587                 3.8785
 Frc consts  --      1.2307                 0.7898                 1.6819
 IR Inten    --     18.4673                92.4114                 0.0081
 Raman Activ --      4.8747                13.5528                 0.1682

                     10                     11                     12
                      A                      A                      A
 Frequencies --    944.8002               983.0801              1041.4923
 Red. masses --      1.5486                 3.9617                 2.6280
 Frc consts  --      0.8145                 2.2559                 1.6795
 IR Inten    --      0.1754                34.2722                 1.1143
 Raman Activ --     12.1011                13.1193                 1.6295

                     13                     14                     15
                      A                      A                      A
 Frequencies --   1042.7620              1084.2222              1154.9902
 Red. masses --      2.6919                 5.4037                 1.3553
 Frc consts  --      1.7246                 3.7426                 1.0652
 IR Inten    --     20.6909                10.5885                 4.8245
 Raman Activ --      7.8620                 0.0978                 2.1391

                     16                     17                     18
                      A                      A                      A
 Frequencies --   1163.1488              1171.6304              1228.1342
 Red. masses --      1.3419                 1.3767                 1.2400
 Frc consts  --      1.0697                 1.1134                 1.1020
 IR Inten    --      4.8585                 0.0139                 2.6239
 Raman Activ --     12.7033                 5.0957                 3.2181

                     19                     20                     21
                      A                      A                      A
 Frequencies --   1286.4711              1344.5394              1364.2518
 Red. masses --      1.7107                 1.1233                 1.1336
 Frc consts  --      1.6681                 1.1965                 1.2430
 IR Inten    --      1.2043                 2.3216                 1.5995
 Raman Activ --      5.5418                18.3596                 9.2556

                     22                     23                     24
                      A                      A                      A
 Frequencies --   1498.1874              1503.3462              1562.9577
 Red. masses --      1.7613                 1.2713                 1.4623
 Frc consts  --      2.3292                 1.6928                 2.1046
 IR Inten    --      0.1499                 0.1108                 6.4136
 Raman Activ --     23.8167                 1.8436                 1.1807

                     25                     26                     27
                      A                      A                      A
 Frequencies --   1594.3366              1765.9532              1852.3355
 Red. masses --      1.6045                 5.6044                 4.8774
 Frc consts  --      2.4030                10.2976                 9.8600
 IR Inten    --     10.3777                 1.2873                 0.0071
 Raman Activ --      9.6485                59.8235                 0.8382

                     28                     29                     30
                      A                      A                      A
 Frequencies --   3348.1448              3355.9361              3362.7317
 Red. masses --      1.0855                 1.0860                 1.0907
 Frc consts  --      7.1692                 7.2064                 7.2666
 IR Inten    --      1.2581                 0.0397                 0.0290
 Raman Activ --     12.5550               125.5649               105.0696

                     31                     32                     33
                      A                      A                      A
 Frequencies --   3375.6079              3376.4940              3388.4592
 Red. masses --      1.0933                 1.0958                 1.0992
 Frc consts  --      7.3399                 7.3605                 7.4359
 IR Inten    --     46.7668                33.1725                 2.1839
 Raman Activ --     13.0106                 6.5688               323.3432

 - Thermochemistry -
 -------------------
 Temperature   298.150 Kelvin.  Pressure   1.00000 Atm.
 Atom     1 has atomic number  6 and mass  12.00000

 Molecular mass:    94.04186 amu.
 Principal axes and moments of inertia in atomic units:
                           1         2         3
     Eigenvalues --   393.78407 507.86287 784.43824
           X            0.99930   0.00000  -0.03741
           Y            0.00000   1.00000   0.00000
           Z            0.03741   0.00000   0.99930
 This molecule is an asymmetric top.
 Rotational symmetry number  1.
 Rotational temperatures (Kelvin)      0.21995     0.17055     0.11042
 Rotational constants (GHZ):           4.58307     3.55360     2.30068
 Zero-point vibrational energy     294903.2 (Joules/Mol)
                                   70.48355 (Kcal/Mol)
 Warning -- explicit consideration of   4 degrees of freedom as
           vibrations may cause significant error
 Vibrational temperatures:    376.00   457.23   732.07   849.54   976.45
          (Kelvin)            994.58  1085.49  1221.87  1234.34  1359.36
                             1414.43  1498.47  1500.30  1559.95  1661.77
                             1673.51  1685.71  1767.01  1850.94  1934.49
                             1962.85  2155.55  2162.98  2248.74  2293.89
                             2540.81  2665.09  4817.23  4828.44  4838.21
                             4856.74  4858.02  4875.23

 Zero-point correction=                           0.112323 (Hartree/Particle)
 Thermal correction to Energy=                    0.117163
 Thermal correction to Enthalpy=                  0.118107
 Thermal correction to Gibbs Free Energy=         0.083831
 Sum of electronic and zero-point Energies=           -303.654506
 Sum of electronic and thermal Energies=              -303.649666
 Sum of electronic and thermal Enthalpies=            -303.648721
 Sum of electronic and thermal Free Energies=         -303.682997

                     E (Thermal)             CV                S
                      KCal/Mol        Cal/Mol-Kelvin    Cal/Mol-Kelvin
 Total                   73.521             18.596             72.139
 Electronic               0.000              0.000              0.000
 Translational            0.889              2.981             39.535
 Rotational               0.889              2.981             26.553
 Vibrational             71.743             12.635              6.051
 Vibration     1          0.669              1.744              1.653
 Vibration     2          0.704              1.640              1.321
 Vibration     3          0.864              1.230              0.636
 Vibration     4          0.948              1.052              0.466

 Normal termination of Gaussian 09 at Fri Oct  5 10:56:29 2018.
