 Gaussian 09, Revision E.01,
 Gaussian 09:  ES64L-G09RevE.01 30-Nov-2015

 ----------------
 # freq hf/sto-3g
 ----------------

 -----------------
 benzox-hf-sto.log
 -----------------
 Symbolic Z-matrix:
 Charge =  0 Multiplicity = 1

                         Standard orientation:
 ---------------------------------------------------------------------
 Center     Atomic      Atomic             Coordinates (Angstroms)
 Number     Number       Type             X           Y           Z
 ---------------------------------------------------------------------
      1          6           0        1.440462   -0.738495    0.112110
      2          6           0        0.347155   -1.435580   -0.155690
      3          6           0       -0.973668   -0.752345   -0.331220
      4          6           0       -0.973674    0.752335   -0.331220
      5          6           0        0.347133    1.435590   -0.155690
      6          6           0        1.440456    0.738505    0.112110
      7          1           0        2.391554   -1.235721    0.258110
      8          1           0        0.371160   -2.512880   -0.260120
      9          1           0        0.371139    2.512880   -0.260120
     10          1           0        2.391544    1.235739    0.258110
     11          8           0       -1.478771   -0.000007    0.788530
     12          1           0       -1.731216    1.286462   -0.903310
     13          1           0       -1.731206   -1.286478   -0.903310
 ---------------------------------------------------------------------

 SCF Done:  E(RHF) =  -301.687837760     A.U. after   12 cycles

 The electronic state is 1-A.
 Alpha  occ. eigenvalues --  -20.29033 -11.09730 -11.09717 -11.03810 -11.03791
 Alpha  occ. eigenvalues --  -11.03650 -11.03646  -1.34982  -1.06257  -0.97498
 Alpha  occ. eigenvalues --   -0.88921  -0.80684  -0.76170  -0.68059  -0.62826
 Alpha  occ. eigenvalues --   -0.58117  -0.57700  -0.55495  -0.48175  -0.46086
 Alpha  occ. eigenvalues --   -0.44959  -0.43975  -0.35753  -0.33428  -0.27194
 Alpha virt. eigenvalues --    0.23724   0.35414   0.51707   0.57660   0.60273
 Alpha virt. eigenvalues --    0.60573   0.63006   0.67131   0.69556   0.70870
 Alpha virt. eigenvalues --    0.77582   0.81173   0.85313   0.95187   1.00371

 Mulliken charges:
               1
     1  C   -0.060323
     2  C   -0.059883
     3  C    0.016709
     4  C    0.016709
     5  C   -0.059885
     6  C   -0.060320
     7  H    0.066690
     8  H    0.068469
     9  H    0.068471
    10  H    0.066689
    11  O   -0.206775
    12  H    0.071724
    13  H    0.071725
 Sum of Mulliken charges =   0.00000

 Dipole moment (field-independent basis, Debye):
    X=              0.7627    Y=              0.0000    Z=             -1.3425  Tot=              1.5440
 Quadrupole moment (field-independent basis, Debye-Ang):
   XX=            -37.3174   YY=            -34.9912   ZZ=            -40.1228
   XY=              0.0000   XZ=              2.8043   YZ=              0.0000

  Exact polarizability:  41.916   0.000  44.117   5.209   0.000  13.361
 Approx polarizability:  38.884   0.000  40.000   3.739   0.000  13.715

                      1                      2                      3
                      A                      A                      A
 Frequencies --    278.1206               335.9816               532.1535
 Red. masses --      4.8948                 2.9758                 3.0986
 Frc consts  --      0.2231                 0.1979                 0.5170
 IR Inten    --      3.1371                 0.3489                 2.4301
 Raman Activ --      3.7518                 0.3239                 1.1984

                      4                      5                      6
                      A                      A                      A
 Frequencies --    607.9723               708.3733               723.7351
 Red. masses --      6.3913                 3.4198                 3.4418
 Frc consts  --      1.3919                 1.0110                 1.0622
 IR Inten    --      0.4138                 7.7844                 0.0968
 Raman Activ --      2.6838                 1.6241                 2.7236

                      7                      8                      9
                      A                      A                      A
 Frequencies --    862.7770               963.9816               964.4030
 Red. masses --      1.7004                 1.4469                 2.4341
 Frc consts  --      0.7458                 0.7922                 1.3338
 IR Inten    --     22.4800                 0.1080                 3.6290
 Raman Activ --      3.3767                 6.4755                13.2659

                     10                     11                     12
                      A                      A                      A
 Frequencies --   1048.7110              1082.0687              1092.5874
 Red. masses --      2.3237                 3.0778                 6.1796
 Frc consts  --      1.5057                 2.1232                 4.3463
 IR Inten    --      0.0006                 3.9542                 4.6404
 Raman Activ --      2.4346                 6.9659                 0.1161

                     13                     14                     15
                      A                      A                      A
 Frequencies --   1173.9495              1201.2753              1206.1400
 Red. masses --      1.7653                 1.3553                 1.2894
 Frc consts  --      1.4334                 1.1523                 1.1051
 IR Inten    --      5.2606                 3.0014                 0.0187
 Raman Activ --      1.4054                 1.4332                 1.1971

                     16                     17                     18
                      A                      A                      A
 Frequencies --   1268.1879              1287.4023              1328.7138
 Red. masses --      2.5936                 1.7994                 1.4079
 Frc consts  --      2.4576                 1.7572                 1.4645
 IR Inten    --      0.4618                 1.6036                 0.1742
 Raman Activ --      7.9066                 7.3814                 1.5541

                     19                     20                     21
                      A                      A                      A
 Frequencies --   1372.9606              1385.4096              1449.4657
 Red. masses --      1.1535                 1.1057                 1.2750
 Frc consts  --      1.2811                 1.2504                 1.5782
 IR Inten    --      0.4031                 0.0014                11.6138
 Raman Activ --      7.8741                25.3861                 9.9563

                     22                     23                     24
                      A                      A                      A
 Frequencies --   1564.7240              1651.9395              1676.2665
 Red. masses --      1.2757                 1.7325                 1.9186
 Frc consts  --      1.8402                 2.7856                 3.1762
 IR Inten    --      0.0015                 2.8193                 0.9644
 Raman Activ --      1.0148                 1.2611                10.3309

                     25                     26                     27
                      A                      A                      A
 Frequencies --   1723.2371              1945.6815              2032.7598
 Red. masses --      3.7091                 6.7458                 5.7802
 Frc consts  --      6.4894                15.0461                14.0724
 IR Inten    --      4.0985                 0.1231                 0.0765
 Raman Activ --     23.5989                46.3376                 0.0887

                     28                     29                     30
                      A                      A                      A
 Frequencies --   3668.4969              3680.4628              3706.9277
 Red. masses --      1.0901                 1.0966                 1.0893
 Frc consts  --      8.6432                 8.7516                 8.8195
 IR Inten    --      0.9080                 3.0980                20.4252
 Raman Activ --     33.9222                64.9064                27.1006

                     31                     32                     33
                      A                      A                      A
 Frequencies --   3716.0189              3736.8262              3742.1299
 Red. masses --      1.0913                 1.1048                 1.1067
 Frc consts  --      8.8791                 9.0898                 9.1311
 IR Inten    --     19.4732                 2.1469                 0.1963
 Raman Activ --     70.0420                13.0807               138.0764

 - Thermochemistry -
 -------------------
 Temperature   298.150 Kelvin.  Pressure   1.00000 Atm.
 Atom     1 has atomic number  6 and mass  12.00000

 Molecular mass:    94.04186 amu.
 Principal axes and moments of inertia in atomic units:
                           1         2         3
     Eigenvalues --   394.50204 512.68425 798.66341
           X            0.99935   0.00000   0.03618
           Y            0.00000   1.00000   0.00000
           Z           -0.03618   0.00000   0.99935
 This molecule is an asymmetric top.
 Rotational symmetry number  1.
 Rotational temperatures (Kelvin)      0.21955     0.16894     0.10845
 Rotational constants (GHZ):           4.57473     3.52018     2.25970
 Zero-point vibrational energy     321316.0 (Joules/Mol)
                                   76.79637 (Kcal/Mol)
 Warning -- explicit consideration of   4 degrees of freedom as
           vibrations may cause significant error
 Vibrational temperatures:    400.15   483.40   765.65   874.74  1019.19
          (Kelvin)           1041.29  1241.34  1386.95  1387.56  1508.86
                             1556.85  1571.99  1689.05  1728.37  1735.36
                             1824.64  1852.28  1911.72  1975.38  1993.29
                             2085.46  2251.29  2376.77  2411.77  2479.35
                             2799.40  2924.68  5278.14  5295.36  5333.44
                             5346.52  5376.45  5384.08

 Zero-point correction=                           0.122383 (Hartree/Particle)
 Thermal correction to Energy=                    0.126960
 Thermal correction to Enthalpy=                  0.127904
 Thermal correction to Gibbs Free Energy=         0.093996
 Sum of electronic and zero-point Energies=           -301.565455
 Sum of electronic and thermal Energies=              -301.560877
 Sum of electronic and thermal Enthalpies=            -301.559933
 Sum of electronic and thermal Free Energies=         -301.593842

                     E (Thermal)             CV                S
                      KCal/Mol        Cal/Mol-Kelvin    Cal/Mol-Kelvin
 Total                   79.669             16.968             71.367
 Electronic               0.000              0.000              0.000
 Translational            0.889              2.981             39.535
 Rotational               0.889              2.981             26.582
 Vibrational             77.891             11.006              5.250
 Vibration     1          0.679              1.714              1.545
 Vibration     2          0.717              1.604              1.231
 Vibration     3          0.887              1.179              0.582
 Vibration     4          0.967              1.015              0.436

 Optimization completed.
    -- Stationary point found.
 Normal termination of Gaussian 09 at Fri Oct  5 10:43:55 2018.
