 Gaussian 09, Revision E.01,
 Gaussian 09:  ES64L-G09RevE.01 30-Nov-2015

 ---------------
 # freq bp86/SVP
 ---------------

 ---------------
 benzox-bp86.log
 ---------------
 Symbolic Z-matrix:
 Charge =  0 Multiplicity = 1

                         Standard orientation:
 ---------------------------------------------------------------------
 Center     Atomic      Atomic             Coordinates (Angstroms)
 Number     Number       Type             X           Y           Z
 ---------------------------------------------------------------------
      1          6           0        1.445472   -0.725416    0.130140
      2          6           0        0.322804   -1.440929   -0.193310
      3          6           0       -0.980518   -0.769553   -0.313940
      4          6           0       -0.980532    0.769537   -0.313950
      5          6           0        0.322787    1.440931   -0.193310
      6          6           0        1.445458    0.725434    0.130140
      7          1           0        2.405784   -1.247604    0.272220
      8          1           0        0.380847   -2.522269   -0.397390
      9          1           0        0.380814    2.522271   -0.397380
     10          1           0        2.405767    1.247636    0.272230
     11          8           0       -1.429760   -0.000004    0.809190
     12          1           0       -1.793993    1.297605   -0.848910
     13          1           0       -1.793976   -1.297625   -0.848900
 ---------------------------------------------------------------------

 SCF Done:  E(RB-P86) =  -307.175004025     A.U. after   14 cycles

 The electronic state is 1-A.
 Alpha  occ. eigenvalues --  -18.79330  -9.97647  -9.97647  -9.92729  -9.92726
 Alpha  occ. eigenvalues --   -9.92492  -9.92489  -0.98470  -0.74549  -0.68141
 Alpha  occ. eigenvalues --   -0.62168  -0.56587  -0.53205  -0.48409  -0.44037
 Alpha  occ. eigenvalues --   -0.42828  -0.40643  -0.39073  -0.36263  -0.33229
 Alpha  occ. eigenvalues --   -0.32061  -0.31950  -0.25273  -0.22698  -0.21193
 Alpha virt. eigenvalues --   -0.08163  -0.00364   0.03216   0.07236   0.07399
 Alpha virt. eigenvalues --    0.09777   0.10596   0.12229   0.12820   0.13248
 Alpha virt. eigenvalues --    0.21702   0.22031   0.22160   0.26351   0.33641

 Mulliken charges:
               1
     1  C   -0.019505
     2  C    0.019395
     3  C    0.081090
     4  C    0.081087
     5  C    0.019396
     6  C   -0.019506
     7  H    0.011894
     8  H    0.010198
     9  H    0.010197
    10  H    0.011895
    11  O   -0.270580
    12  H    0.032219
    13  H    0.032219
 Sum of Mulliken charges =   0.00000

 Dipole moment (field-independent basis, Debye):
    X=              0.7121    Y=              0.0000    Z=             -1.5960  Tot=              1.7477
 Quadrupole moment (field-independent basis, Debye-Ang):
   XX=            -38.6782   YY=            -36.2555   ZZ=            -44.0905
   XY=              0.0000   XZ=              3.5158   YZ=              0.0000

  Exact polarizability:  74.446   0.000  77.781   7.091   0.000  36.557
 Approx polarizability: 146.376   0.000 160.665  10.853   0.000  67.490

                      1                      2                      3
                      A                      A                      A
 Frequencies --    249.5386               310.4479               444.8596
 Red. masses --      4.4104                 2.9660                 2.5094
 Frc consts  --      0.1618                 0.1684                 0.2926
 IR Inten    --      5.2205                 0.0119                 9.2404

                      4                      5                      6
                      A                      A                      A
 Frequencies --    525.7501               590.4378               607.9126
 Red. masses --      6.6726                 3.1669                 3.7276
 Frc consts  --      1.0867                 0.6505                 0.8116
 IR Inten    --      0.3400                 3.7045                 1.4522

                      7                      8                      9
                      A                      A                      A
 Frequencies --    680.1340               747.3089               751.0386
 Red. masses --      3.9246                 1.9119                 1.6555
 Frc consts  --      1.0696                 0.6291                 0.5502
 IR Inten    --     19.4449                66.5510                 0.9688

                     10                     11                     12
                      A                      A                      A
 Frequencies --    830.6276               912.6231               938.5389
 Red. masses --      3.2984                 1.7079                 5.5554
 Frc consts  --      1.3408                 0.8381                 2.8832
 IR Inten    --      0.0768                 8.7709                10.3753

                     13                     14                     15
                      A                      A                      A
 Frequencies --    944.1776               953.9511               958.9575
 Red. masses --      2.4059                 1.7066                 1.3302
 Frc consts  --      1.2637                 0.9150                 0.7207
 IR Inten    --      9.1759                 3.0847                 1.0965

                     16                     17                     18
                      A                      A                      A
 Frequencies --    981.5670              1017.7826              1085.2595
 Red. masses --      1.7916                 1.4225                 1.4193
 Frc consts  --      1.0170                 0.8682                 0.9849
 IR Inten    --     15.9014                 6.9078                 0.3413

                     19                     20                     21
                      A                      A                      A
 Frequencies --   1141.6126              1152.4118              1212.1669
 Red. masses --      1.1209                 1.1235                 1.6868
 Frc consts  --      0.8607                 0.8791                 1.4603
 IR Inten    --      4.8649                 1.1652                11.0643

                     22                     23                     24
                      A                      A                      A
 Frequencies --   1301.1000              1338.8765              1374.0761
 Red. masses --      1.2006                 1.9816                 1.7435
 Frc consts  --      1.1975                 2.0929                 1.9395
 IR Inten    --      0.4949                 3.7063                 2.3656

                     25                     26                     27
                      A                      A                      A
 Frequencies --   1418.1749              1557.1035              1630.9310
 Red. masses --      2.2255                 6.4320                 5.5922
 Frc consts  --      2.6372                 9.1882                 8.7640
 IR Inten    --      7.8670                 1.2180                 0.4305

                     28                     29                     30
                      A                      A                      A
 Frequencies --   3030.2737              3037.9936              3092.3305
 Red. masses --      1.0879                 1.0912                 1.0848
 Frc consts  --      5.8855                 5.9335                 6.1118
 IR Inten    --     15.1129                55.2064                 0.1650

                     31                     32                     33
                      A                      A                      A
 Frequencies --   3100.4130              3111.7768              3118.7234
 Red. masses --      1.0877                 1.0964                 1.0996
 Frc consts  --      6.1604                 6.2553                 6.3016
 IR Inten    --      7.6763                20.4801                 7.9345

 - Thermochemistry -
 -------------------
 Temperature   298.150 Kelvin.  Pressure   1.00000 Atm.
 Atom     1 has atomic number  6 and mass  12.00000

 Molecular mass:    94.04186 amu.
 Principal axes and moments of inertia in atomic units:
                           1         2         3
     Eigenvalues --   399.63175 510.10610 796.31859
           X            0.99936   0.00000   0.03581
           Y            0.00000   1.00000   0.00000
           Z           -0.03581   0.00000   0.99936
 This molecule is an asymmetric top.
 Rotational symmetry number  1.
 Rotational temperatures (Kelvin)      0.21673     0.16980     0.10877
 Rotational constants (GHZ):           4.51601     3.53797     2.26636
 Zero-point vibrational energy     264068.9 (Joules/Mol)
                                   63.11399 (Kcal/Mol)
 Warning -- explicit consideration of   6 degrees of freedom as
           vibrations may cause significant error
 Vibrational temperatures:    359.03   446.66   640.05   756.44   849.51
          (Kelvin)            874.65   978.56  1075.21  1080.58  1195.09
                             1313.06  1350.35  1358.46  1372.52  1379.72
                             1412.25  1464.36  1561.44  1642.52  1658.06
                             1744.04  1871.99  1926.34  1976.99  2040.43
                             2240.32  2346.54  4359.88  4370.99  4449.17
                             4460.80  4477.15  4487.14

 Zero-point correction=                           0.100579 (Hartree/Particle)
 Thermal correction to Energy=                    0.105911
 Thermal correction to Enthalpy=                  0.106856
 Thermal correction to Gibbs Free Energy=         0.071867
 Sum of electronic and zero-point Energies=           -307.074425
 Sum of electronic and thermal Energies=              -307.069093
 Sum of electronic and thermal Enthalpies=            -307.068148
 Sum of electronic and thermal Free Energies=         -307.103137

                     E (Thermal)             CV                S
                      KCal/Mol        Cal/Mol-Kelvin    Cal/Mol-Kelvin
 Total                   66.460             21.519             73.639
 Electronic               0.000              0.000              0.000
 Translational            0.889              2.981             39.535
 Rotational               0.889              2.981             26.587
 Vibrational             64.683             15.557              7.517
 Vibration     1          0.662              1.764              1.734
 Vibration     2          0.699              1.654              1.360
 Vibration     3          0.804              1.372              0.811
 Vibration     4          0.881              1.193              0.597
 Vibration     5          0.948              1.052              0.466
 Vibration     6          0.967              1.015              0.436

 Optimization completed.
    -- Stationary point found.
 Normal termination of Gaussian 09 at Fri Oct  5 10:19:06 2018.
