 Gaussian 09, Revision E.01,
 Gaussian 09:  ES64L-G09RevE.01 30-Nov-2015

 --------------
 # opt bp86/SVP
 --------------

 ----------
 benzox.log
 ----------
 Symbolic Z-matrix:
 Charge =  0 Multiplicity = 1

 SCF Done:  E(RB-P86) =  -307.174129725     A.U. after   14 cycles
 SCF Done:  E(RB-P86) =  -307.174949485     A.U. after   13 cycles
 SCF Done:  E(RB-P86) =  -307.174987832     A.U. after    9 cycles
 SCF Done:  E(RB-P86) =  -307.175001964     A.U. after    9 cycles
 SCF Done:  E(RB-P86) =  -307.175003416     A.U. after    8 cycles
 SCF Done:  E(RB-P86) =  -307.175004026     A.U. after    8 cycles
 Optimization completed.
    -- Stationary point found.

                         Standard orientation:
 ---------------------------------------------------------------------
 Center     Atomic      Atomic             Coordinates (Angstroms)
 Number     Number       Type             X           Y           Z
 ---------------------------------------------------------------------
      1          6           0       -1.445471    0.725421    0.130136
      2          6           0       -0.322801    1.440926   -0.193305
      3          6           0        0.980525    0.769550   -0.313942
      4          6           0        0.980534   -0.769542   -0.313946
      5          6           0       -0.322789   -1.440927   -0.193306
      6          6           0       -1.445464   -0.725431    0.130137
      7          1           0       -2.405781    1.247611    0.272225
      8          1           0       -0.380839    2.522266   -0.397388
      9          1           0       -0.380821   -2.522268   -0.397385
     10          1           0       -2.405768   -1.247630    0.272231
     11          8           0        1.429756    0.000003    0.809185
     12          1           0        1.793988   -1.297610   -0.848905
     13          1           0        1.793979    1.297624   -0.848896
 ---------------------------------------------------------------------

 The electronic state is 1-A.
 Alpha  occ. eigenvalues --  -18.79330  -9.97647  -9.97647  -9.92729  -9.92726
 Alpha  occ. eigenvalues --   -9.92492  -9.92489  -0.98470  -0.74549  -0.68141
 Alpha  occ. eigenvalues --   -0.62167  -0.56587  -0.53205  -0.48409  -0.44037
 Alpha  occ. eigenvalues --   -0.42828  -0.40643  -0.39073  -0.36263  -0.33228
 Alpha  occ. eigenvalues --   -0.32061  -0.31950  -0.25273  -0.22698  -0.21193
 Alpha virt. eigenvalues --   -0.08162  -0.00364   0.03216   0.07236   0.07399
 Alpha virt. eigenvalues --    0.09777   0.10596   0.12229   0.12820   0.13248
 Alpha virt. eigenvalues --    0.21702   0.22031   0.22160   0.26351   0.33641

 Mulliken charges:
               1
     1  C   -0.019504
     2  C    0.019394
     3  C    0.081091
     4  C    0.081092
     5  C    0.019393
     6  C   -0.019504
     7  H    0.011893
     8  H    0.010197
     9  H    0.010197
    10  H    0.011893
    11  O   -0.270576
    12  H    0.032217
    13  H    0.032217
 Sum of Mulliken charges =   0.00000

 Dipole moment (field-independent basis, Debye):
    X=             -0.7120    Y=              0.0000    Z=             -1.5960  Tot=              1.7476
 Quadrupole moment (field-independent basis, Debye-Ang):
   XX=            -38.6781   YY=            -36.2556   ZZ=            -44.0905
   XY=              0.0000   XZ=             -3.5158   YZ=              0.0000

 Normal termination of Gaussian 09 at Fri Oct  5 10:14:05 2018.
