 Gaussian 09, Revision E.01,
 Gaussian 09:  ES64L-G09RevE.01 30-Nov-2015

 ----------------
 # freq hf/6-31g*
 ----------------

 -------------
 benzox-hf.log
 -------------
 Symbolic Z-matrix:
 Charge =  0 Multiplicity = 1

                         Standard orientation:
 ---------------------------------------------------------------------
 Center     Atomic      Atomic             Coordinates (Angstroms)
 Number     Number       Type             X           Y           Z
 ---------------------------------------------------------------------
      1          6           0        1.434782   -0.732156    0.104540
      2          6           0        0.331314   -1.427268   -0.152490
      3          6           0       -0.967538   -0.738360   -0.323720
      4          6           0       -0.967550    0.738350   -0.323730
      5          6           0        0.331309    1.427272   -0.152490
      6          6           0        1.434770    0.732164    0.104540
      7          1           0        2.372983   -1.237375    0.251050
      8          1           0        0.360145   -2.497468   -0.255080
      9          1           0        0.360127    2.497472   -0.255090
     10          1           0        2.372969    1.237395    0.251040
     11          8           0       -1.446219   -0.000001    0.772490
     12          1           0       -1.739501    1.267878   -0.855870
     13          1           0       -1.739497   -1.267892   -0.855860
 ---------------------------------------------------------------------

 SCF Done:  E(RHF) =  -305.485227328     A.U. after   13 cycles

 The electronic state is 1-A.
 Alpha  occ. eigenvalues --  -20.57099 -11.28841 -11.28766 -11.23936 -11.23861
 Alpha  occ. eigenvalues --  -11.23483 -11.23481  -1.42996  -1.11746  -1.02908
 Alpha  occ. eigenvalues --   -0.94432  -0.86201  -0.81785  -0.73226  -0.68077
 Alpha  occ. eigenvalues --   -0.65411  -0.63776  -0.60290  -0.55645  -0.52590
 Alpha  occ. eigenvalues --   -0.50818  -0.48996  -0.43641  -0.39585  -0.32348
 Alpha virt. eigenvalues --    0.11095   0.21955   0.23131   0.28504   0.28633
 Alpha virt. eigenvalues --    0.31888   0.32019   0.33495   0.37880   0.38080
 Alpha virt. eigenvalues --    0.44547   0.45613   0.48314   0.50054   0.64349

 Mulliken charges:
               1
     1  C   -0.196376
     2  C   -0.176630
     3  C    0.044490
     4  C    0.044486
     5  C   -0.176629
     6  C   -0.196376
     7  H    0.203159
     8  H    0.205762
     9  H    0.205762
    10  H    0.203156
    11  O   -0.546869
    12  H    0.193033
    13  H    0.193032
 Sum of Mulliken charges =   0.00000

 Dipole moment (field-independent basis, Debye):
    X=              1.1582    Y=              0.0000    Z=             -1.9647  Tot=              2.2807
 Quadrupole moment (field-independent basis, Debye-Ang):
   XX=            -38.7936   YY=            -35.3246   ZZ=            -44.4824
   XY=             -0.0001   XZ=              4.4267   YZ=             -0.0001

  Exact polarizability:  65.126   0.000  66.977   6.470   0.000  29.785
 Approx polarizability:  59.228   0.000  60.624   4.676   0.000  32.601

                      1                      2                      3
                      A                      A                      A
 Frequencies --    268.6372               332.6385               511.4146
 Red. masses --      4.4705                 2.8421                 2.9911
 Frc consts  --      0.1901                 0.1853                 0.4609
 IR Inten    --      6.3005                 0.5880                11.4830
 Raman Activ --      5.1570                 0.3958                 1.7684

                      4                      5                      6
                      A                      A                      A
 Frequencies --    586.1105               678.9118               679.3311
 Red. masses --      6.5247                 3.3181                 2.8650
 Frc consts  --      1.3206                 0.9011                 0.7790
 IR Inten    --      1.0313                 0.4952                16.5025
 Raman Activ --      3.5854                 3.4101                 2.9838

                      7                      8                      9
                      A                      A                      A
 Frequencies --    797.2378               872.2195               878.4099
 Red. masses --      2.2194                 1.8548                 2.5282
 Frc consts  --      0.8311                 0.8314                 1.1494
 IR Inten    --     27.4801                 0.0785                55.0086
 Raman Activ --      3.4741                 2.5157                18.4390

                     10                     11                     12
                      A                      A                      A
 Frequencies --    944.4937              1009.0933              1049.2346
 Red. masses --      2.5275                 3.6709                 4.8982
 Frc consts  --      1.3284                 2.2024                 3.1771
 IR Inten    --      0.0210                27.4195                 4.3865
 Raman Activ --      5.4202                11.0301                 0.1560

                     13                     14                     15
                      A                      A                      A
 Frequencies --   1083.8423              1090.5607              1114.0227
 Red. masses --      1.7871                 2.9294                 1.6577
 Frc consts  --      1.2369                 2.0527                 1.2121
 IR Inten    --     24.0273                11.6956                21.8768
 Raman Activ --      1.4954                 1.3122                 2.9499

                     16                     17                     18
                      A                      A                      A
 Frequencies --   1116.8358              1189.7629              1264.3773
 Red. masses --      1.3240                 1.3919                 1.2468
 Frc consts  --      0.9730                 1.1608                 1.1743
 IR Inten    --      0.0056                19.1493                 0.0001
 Raman Activ --      4.9396                 8.2217                 7.3559

                     19                     20                     21
                      A                      A                      A
 Frequencies --   1296.0599              1312.1054              1398.6503
 Red. masses --      1.1293                 1.1286                 1.4374
 Frc consts  --      1.1177                 1.1448                 1.6567
 IR Inten    --      6.4104                 0.5864                 7.3555
 Raman Activ --      6.1047                16.0820                11.3275

                     22                     23                     24
                      A                      A                      A
 Frequencies --   1493.6052              1560.1401              1560.6531
 Red. masses --      1.2118                 1.6064                 1.9500
 Frc consts  --      1.5927                 2.3038                 2.7984
 IR Inten    --      0.7214                 1.9056                 6.0734
 Raman Activ --      1.0577                 1.8922                15.3515

                     25                     26                     27
                      A                      A                      A
 Frequencies --   1602.3089              1798.3256              1873.4227
 Red. masses --      2.3776                 6.2558                 5.3201
 Frc consts  --      3.5965                11.9199                11.0011
 IR Inten    --     14.7469                 1.3525                 0.1011
 Raman Activ --     15.3481                75.4643                 3.4908

                     28                     29                     30
                      A                      A                      A
 Frequencies --   3329.1466              3340.5819              3353.9091
 Red. masses --      1.0881                 1.0915                 1.0870
 Frc consts  --      7.1051                 7.1769                 7.2040
 IR Inten    --     16.0036                54.5566                 0.1099
 Raman Activ --     57.8299               127.2192                65.2797

                     31                     32                     33
                      A                      A                      A
 Frequencies --   3363.8548              3378.0170              3387.0349
 Red. masses --      1.0892                 1.0985                 1.1001
 Frc consts  --      7.2617                 7.3854                 7.4356
 IR Inten    --     26.6529                49.4235                12.5639
 Raman Activ --    101.8476                16.4697               287.2351

 - Thermochemistry -
 -------------------
 Temperature   298.150 Kelvin.  Pressure   1.00000 Atm.
 Atom     1 has atomic number  6 and mass  12.00000

 Molecular mass:    94.04186 amu.
 Principal axes and moments of inertia in atomic units:
                           1         2         3
     Eigenvalues --   386.33584 500.71943 783.87669
           X            0.99938   0.00000   0.03517
           Y            0.00000   1.00000   0.00000
           Z           -0.03517   0.00000   0.99938
 This molecule is an asymmetric top.
 Rotational symmetry number  1.
 Rotational temperatures (Kelvin)      0.22419     0.17298     0.11049
 Rotational constants (GHZ):           4.67143     3.60430     2.30233
 Zero-point vibrational energy     296165.2 (Joules/Mol)
                                   70.78517 (Kcal/Mol)
 Warning -- explicit consideration of   4 degrees of freedom as
           vibrations may cause significant error
 Vibrational temperatures:    386.51   478.59   735.81   843.28   976.80
          (Kelvin)            977.40  1147.05  1254.93  1263.83  1358.91
                             1451.86  1509.61  1559.41  1569.07  1602.83
                             1606.88  1711.80  1819.15  1864.74  1887.82
                             2012.34  2148.96  2244.69  2245.43  2305.36
                             2587.39  2695.43  4789.89  4806.35  4825.52
                             4839.83  4860.21  4873.18

 Zero-point correction=                           0.112803 (Hartree/Particle)
 Thermal correction to Energy=                    0.117591
 Thermal correction to Enthalpy=                  0.118535
 Thermal correction to Gibbs Free Energy=         0.084366
 Sum of electronic and zero-point Energies=           -305.372424
 Sum of electronic and thermal Energies=              -305.367637
 Sum of electronic and thermal Enthalpies=            -305.366692
 Sum of electronic and thermal Free Energies=         -305.400861

                     E (Thermal)             CV                S
                      KCal/Mol        Cal/Mol-Kelvin    Cal/Mol-Kelvin
 Total                   73.789             18.376             71.915
 Electronic               0.000              0.000              0.000
 Translational            0.889              2.981             39.535
 Rotational               0.889              2.981             26.519
 Vibrational             72.012             12.415              5.860
 Vibration     1          0.673              1.731              1.605
 Vibration     2          0.715              1.610              1.247
 Vibration     3          0.867              1.225              0.630
 Vibration     4          0.943              1.061              0.474

 Optimization completed.
    -- Stationary point found.
 Normal termination of Gaussian 09 at Fri Oct  5 10:07:34 2018.
