 Gaussian 09, Revision E.01,
 Gaussian 09:  ES64L-G09RevE.01 30-Nov-2015

 ----------------
 # freq b3lyp/svp
 ----------------

 ------
 ts.log
 ------
 Symbolic Z-matrix:
 Charge =  0 Multiplicity = 1

                         Standard orientation:
 ---------------------------------------------------------------------
 Center     Atomic      Atomic             Coordinates (Angstroms)
 Number     Number       Type             X           Y           Z
 ---------------------------------------------------------------------
      1          6           0       -1.413989    0.703714    0.163129
      2          6           0       -0.305997    1.450661   -0.241521
      3          6           0        0.990072    0.919897   -0.230371
      4          6           0        0.990057   -0.919913   -0.230361
      5          6           0       -0.306025   -1.450659   -0.241521
      6          6           0       -1.414013   -0.703686    0.163129
      7          1           0       -2.375887    1.212177    0.277579
      8          1           0       -0.451034    2.445551   -0.673301
      9          1           0       -0.451098   -2.445539   -0.673311
     10          1           0       -2.375924   -1.212123    0.277569
     11          8           0        1.344299   -0.000014    0.746309
     12          1           0        1.829445   -1.412096   -0.736961
     13          1           0        1.829473    1.412064   -0.736961
 ---------------------------------------------------------------------

 SCF Done:  E(RB3LYP) =  -307.163633733     A.U. after   14 cycles

 The electronic state is 1-A.
 Alpha  occ. eigenvalues --  -19.15877 -10.25683 -10.25681 -10.19645 -10.19613
 Alpha  occ. eigenvalues --  -10.19379 -10.19374  -1.08446  -0.81710  -0.76549
 Alpha  occ. eigenvalues --   -0.68758  -0.64191  -0.57014  -0.53378  -0.52463
 Alpha  occ. eigenvalues --   -0.47305  -0.46095  -0.45200  -0.42313  -0.38374
 Alpha  occ. eigenvalues --   -0.36873  -0.34459  -0.28780  -0.24620  -0.24386
 Alpha virt. eigenvalues --   -0.02355  -0.01128   0.05659   0.08661   0.09374
 Alpha virt. eigenvalues --    0.10116   0.13029   0.14111   0.15585   0.16939
 Alpha virt. eigenvalues --    0.24410   0.29402   0.29929   0.30788   0.37551

 Mulliken charges:
               1
     1  C    0.000878
     2  C    0.024340
     3  C    0.103308
     4  C    0.103311
     5  C    0.024335
     6  C    0.000877
     7  H   -0.006089
     8  H   -0.002883
     9  H   -0.002883
    10  H   -0.006088
    11  O   -0.274092
    12  H    0.017493
    13  H    0.017494
 Sum of Mulliken charges =   0.00000

 Dipole moment (field-independent basis, Debye):
    X=             -0.3569    Y=              0.0000    Z=             -1.6159  Tot=              1.6548
 Quadrupole moment (field-independent basis, Debye-Ang):
   XX=            -38.1198   YY=            -36.6992   ZZ=            -44.1656
   XY=              0.0001   XZ=             -2.8424   YZ=              0.0000

  Exact polarizability:  76.433   0.000  79.862  -7.253   0.000  35.565
 Approx polarizability: 129.579   0.000 139.441 -11.774   0.000  56.125

 ******    1 imaginary frequencies (negative Signs) ******

                      1                      2                      3
                      A                      A                      A
 Frequencies --   -486.6532               303.9777               334.9467
 Red. masses --      6.0674                 5.1628                 3.0284
 Frc consts  --      0.8466                 0.2811                 0.2002
 IR Inten    --      0.2891                 2.4641                 0.7317

                      4                      5                      6
                      A                      A                      A
 Frequencies --    464.6275               493.1067               645.8232
 Red. masses --      3.3685                 5.8428                 3.5653
 Frc consts  --      0.4284                 0.8371                 0.8761
 IR Inten    --      6.2250                 1.8361                 2.7000

                      7                      8                      9
                      A                      A                      A
 Frequencies --    710.0152               744.0699               790.8700
 Red. masses --      1.3050                 2.9293                 1.2548
 Frc consts  --      0.3876                 0.9555                 0.4624
 IR Inten    --     62.5413                12.2757                17.6207

                     10                     11                     12
                      A                      A                      A
 Frequencies --    847.9458               882.7510               931.6537
 Red. masses --      1.3625                 2.2591                 1.3734
 Frc consts  --      0.5772                 1.0372                 0.7024
 IR Inten    --     15.2437                 0.5219                 3.7153

                     13                     14                     15
                      A                      A                      A
 Frequencies --    960.6959               983.9853               994.8943
 Red. masses --      2.0817                 3.9481                 4.7022
 Frc consts  --      1.1320                 2.2522                 2.7422
 IR Inten    --      0.0002                 3.7226                 6.8134

                     16                     17                     18
                      A                      A                      A
 Frequencies --    996.2583              1063.3092              1117.3962
 Red. masses --      1.2983                 1.6877                 1.6583
 Frc consts  --      0.7592                 1.1243                 1.2199
 IR Inten    --      0.3590                11.3757                14.8964

                     19                     20                     21
                      A                      A                      A
 Frequencies --   1193.6948              1208.3902              1243.2112
 Red. masses --      1.1134                 1.3851                 1.6826
 Frc consts  --      0.9347                 1.1916                 1.5322
 IR Inten    --      2.0231                 4.4609                22.0930

                     22                     23                     24
                      A                      A                      A
 Frequencies --   1344.8255              1416.4042              1467.3657
 Red. masses --      1.1964                 1.8882                 1.9836
 Frc consts  --      1.2749                 2.2319                 2.5164
 IR Inten    --      1.9533                 5.2201                 0.0369

                     25                     26                     27
                      A                      A                      A
 Frequencies --   1480.9228              1573.7615              1624.6672
 Red. masses --      3.8958                 3.9001                 5.6265
 Frc consts  --      5.0340                 5.6913                 8.7502
 IR Inten    --     11.1335                 7.2964                 0.0220

                     28                     29                     30
                      A                      A                      A
 Frequencies --   3143.8264              3149.8168              3164.7316
 Red. masses --      1.0879                 1.0891                 1.0870
 Frc consts  --      6.3349                 6.3661                 6.4144
 IR Inten    --      6.2176                17.6199                 0.0685

                     31                     32                     33
                      A                      A                      A
 Frequencies --   3172.7302              3179.4551              3188.3799
 Red. masses --      1.0914                 1.0951                 1.0979
 Frc consts  --      6.4732                 6.5226                 6.5756
 IR Inten    --     14.8469                17.2579                 6.6366

 - Thermochemistry -
 -------------------
 Temperature   298.150 Kelvin.  Pressure   1.00000 Atm.
 Atom     1 has atomic number  6 and mass  12.00000

 Molecular mass:    94.04186 amu.
 Principal axes and moments of inertia in atomic units:
                           1         2         3
     Eigenvalues --   414.11291 483.83639 796.33330
           X            0.99952   0.00000  -0.03112
           Y            0.00000   1.00000   0.00000
           Z            0.03112   0.00000   0.99952
 This molecule is an asymmetric top.
 Rotational symmetry number  1.
 Rotational temperatures (Kelvin)      0.20916     0.17901     0.10877
 Rotational constants (GHZ):           4.35809     3.73007     2.26631
    1 imaginary frequencies ignored.
 Zero-point vibrational energy     268074.2 (Joules/Mol)
                                   64.07128 (Kcal/Mol)
 Warning -- explicit consideration of   4 degrees of freedom as
           vibrations may cause significant error
 Vibrational temperatures:    437.36   481.91   668.49   709.47   929.19
          (Kelvin)           1021.55  1070.55  1137.88  1220.00  1270.08
                             1340.44  1382.23  1415.73  1431.43  1433.39
                             1529.86  1607.68  1717.46  1738.60  1788.70
                             1934.90  2037.89  2111.21  2130.71  2264.29
                             2337.53  4523.26  4531.88  4553.34  4564.85
                             4574.52  4587.36

 Zero-point correction=                           0.102104 (Hartree/Particle)
 Thermal correction to Energy=                    0.107095
 Thermal correction to Enthalpy=                  0.108039
 Thermal correction to Gibbs Free Energy=         0.073601
 Sum of electronic and zero-point Energies=           -307.061530
 Sum of electronic and thermal Energies=              -307.056539
 Sum of electronic and thermal Enthalpies=            -307.055595
 Sum of electronic and thermal Free Energies=         -307.090033

                     E (Thermal)             CV                S
                      KCal/Mol        Cal/Mol-Kelvin    Cal/Mol-Kelvin
 Total                   67.203             19.789             72.482
 Electronic               0.000              0.000              0.000
 Translational            0.889              2.981             39.535
 Rotational               0.889              2.981             26.570
 Vibrational             65.426             13.827              6.377
 Vibration     1          0.695              1.666              1.395
 Vibration     2          0.716              1.606              1.236
 Vibration     3          0.822              1.329              0.753
 Vibration     4          0.849              1.265              0.676

 Optimization completed.
    -- Stationary point found.
 Normal termination of Gaussian 09 at Tue Oct  2 16:43:45 2018.
