 Gaussian 09, Revision E.01,
 Gaussian 09:  ES64L-G09RevE.01 30-Nov-2015

 ----------------
 #mp2/aug-cc-pvdz
 ----------------

 ---------------
 oxepin-bp86.log
 ---------------
 Symbolic Z-matrix:
 Charge =  0 Multiplicity = 1

                         Standard orientation:
 ---------------------------------------------------------------------
 Center     Atomic      Atomic             Coordinates (Angstroms)
 Number     Number       Type             X           Y           Z
 ---------------------------------------------------------------------
      1          6           0        1.447319   -0.685208    0.148602
      2          6           0        0.310168   -1.510353   -0.239428
      3          6           0       -0.993537   -1.151496   -0.127038
      4          6           0       -0.993507    1.151524   -0.127038
      5          6           0        0.310218    1.510347   -0.239428
      6          6           0        1.447337    0.685162    0.148602
      7          1           0        2.395962   -1.207661    0.360352
      8          1           0        0.513455   -2.499336   -0.685198
      9          1           0        0.513531    2.499324   -0.685198
     10          1           0        2.395994    1.207599    0.360362
     11          8           0       -1.418032    0.000020    0.532302
     12          1           0       -1.821318    1.784025   -0.497188
     13          1           0       -1.821365   -1.783975   -0.497188
 ---------------------------------------------------------------------

 SCF Done:  E(RHF) =  -305.522455805     A.U. after   14 cycles
 E2 =    -0.1007929882D+01 EUMP2 =    -0.30653038568709D+03

 The electronic state is 1-A.
 Alpha  occ. eigenvalues --  -20.60149 -11.31275 -11.31275 -11.25693 -11.25556
 Alpha  occ. eigenvalues --  -11.24965 -11.24964  -1.41816  -1.10500  -1.06228
 Alpha  occ. eigenvalues --   -0.95718  -0.89118  -0.75331  -0.74968  -0.71354
 Alpha  occ. eigenvalues --   -0.63414  -0.63412  -0.61578  -0.58965  -0.54816
 Alpha  occ. eigenvalues --   -0.50965  -0.48045  -0.44125  -0.37276  -0.30202
 Alpha virt. eigenvalues --    0.03498   0.04131   0.04199   0.05615   0.05716
 Alpha virt. eigenvalues --    0.07262   0.07827   0.10712   0.12074   0.12265
 Alpha virt. eigenvalues --    0.12482   0.13544   0.14778   0.14801   0.15172

 Mulliken charges:
               1
     1  C    0.312976
     2  C    0.476206
     3  C    0.704811
     4  C    0.704806
     5  C    0.476175
     6  C    0.312965
     7  H   -0.384541
     8  H   -0.382443
     9  H   -0.382442
    10  H   -0.384533
    11  O   -0.971272
    12  H   -0.241354
    13  H   -0.241353
 Sum of Mulliken charges =   0.00000

 Dipole moment (field-independent basis, Debye):
    X=              0.6142    Y=              0.0000    Z=             -1.2366  Tot=              1.3807
 Quadrupole moment (field-independent basis, Debye-Ang):
   XX=            -38.4906   YY=            -36.2371   ZZ=            -46.3680
   XY=              0.0000   XZ=              2.6289   YZ=              0.0000

 Normal termination of Gaussian 09 at Fri Oct  5 17:28:11 2018.
