 Gaussian 09, Revision E.01,
 Gaussian 09:  ES64L-G09RevE.01 30-Nov-2015

 ---------------
 # opt hf/6-31g*
 ---------------

 ----------
 oxepin.log
 ----------
 Symbolic Z-matrix:
 Charge =  0 Multiplicity = 1

 SCF Done:  E(RHF) =  -305.485653565     A.U. after   12 cycles
 SCF Done:  E(RHF) =  -305.489553566     A.U. after   11 cycles
 SCF Done:  E(RHF) =  -305.489779422     A.U. after   10 cycles
 SCF Done:  E(RHF) =  -305.489803663     A.U. after   10 cycles
 SCF Done:  E(RHF) =  -305.489808614     A.U. after    9 cycles
 SCF Done:  E(RHF) =  -305.489811744     A.U. after    9 cycles
 SCF Done:  E(RHF) =  -305.489812665     A.U. after    8 cycles
 Optimization completed.
    -- Stationary point found.

                         Standard orientation:
 ---------------------------------------------------------------------
 Center     Atomic      Atomic             Coordinates (Angstroms)
 Number     Number       Type             X           Y           Z
 ---------------------------------------------------------------------
      1          6           0       -1.437620    0.665016    0.139043
      2          6           0       -0.293717    1.501419   -0.241097
      3          6           0        0.974024    1.159009   -0.105945
      4          6           0        0.974024   -1.159009   -0.105945
      5          6           0       -0.293717   -1.501419   -0.241097
      6          6           0       -1.437620   -0.665015    0.139043
      7          1           0       -2.346278    1.183388    0.393359
      8          1           0       -0.499469    2.465619   -0.671968
      9          1           0       -0.499470   -2.465619   -0.671968
     10          1           0       -2.346278   -1.183388    0.393359
     11          8           0        1.401437    0.000000    0.485275
     12          1           0        1.783873   -1.793832   -0.414495
     13          1           0        1.783873    1.793832   -0.414495
 ---------------------------------------------------------------------

 The electronic state is 1-A.
 Alpha  occ. eigenvalues --  -20.58812 -11.29099 -11.29099 -11.23569 -11.23402
 Alpha  occ. eigenvalues --  -11.22802 -11.22802  -1.41926  -1.10237  -1.06635
 Alpha  occ. eigenvalues --   -0.96232  -0.88814  -0.75397  -0.75050  -0.71512
 Alpha  occ. eigenvalues --   -0.63762  -0.63133  -0.61462  -0.59199  -0.54905
 Alpha  occ. eigenvalues --   -0.49773  -0.47751  -0.43310  -0.37727  -0.29763
 Alpha virt. eigenvalues --    0.11531   0.20165   0.24430   0.26868   0.29390
 Alpha virt. eigenvalues --    0.29697   0.32615   0.33455   0.33642   0.34024
 Alpha virt. eigenvalues --    0.46585   0.49255   0.52243   0.56893   0.64403

 Mulliken charges:
               1
     1  C   -0.183975
     2  C   -0.242095
     3  C    0.143722
     4  C    0.143722
     5  C   -0.242095
     6  C   -0.183975
     7  H    0.194748
     8  H    0.201013
     9  H    0.201013
    10  H    0.194748
    11  O   -0.618291
    12  H    0.195731
    13  H    0.195731
 Sum of Mulliken charges =   0.00000

 Dipole moment (field-independent basis, Debye):
    X=             -0.5567    Y=              0.0000    Z=             -1.2302  Tot=              1.3503
 Quadrupole moment (field-independent basis, Debye-Ang):
   XX=            -38.0465   YY=            -35.1908   ZZ=            -44.3204
   XY=              0.0000   XZ=             -2.6109   YZ=              0.0000

 Normal termination of Gaussian 09 at Fri Oct  5 09:50:54 2018.
