 Gaussian 09, Revision E.01,
 Gaussian 09:  ES64L-G09RevE.01 30-Nov-2015

 --------------
 # opt hf/3-21g
 --------------

 -------------
 oxepin-hf.log
 -------------
 Symbolic Z-matrix:
 Charge =  0 Multiplicity = 1

 SCF Done:  E(RHF) =  -303.788728792     A.U. after   12 cycles
 SCF Done:  E(RHF) =  -303.790792089     A.U. after   11 cycles
 SCF Done:  E(RHF) =  -303.790966210     A.U. after   10 cycles
 SCF Done:  E(RHF) =  -303.790980641     A.U. after   10 cycles
 SCF Done:  E(RHF) =  -303.790983625     A.U. after    9 cycles
 SCF Done:  E(RHF) =  -303.790986286     A.U. after    9 cycles
 SCF Done:  E(RHF) =  -303.790987132     A.U. after    9 cycles
 Optimization completed.
    -- Stationary point found.

                         Standard orientation:
 ---------------------------------------------------------------------
 Center     Atomic      Atomic             Coordinates (Angstroms)
 Number     Number       Type             X           Y           Z
 ---------------------------------------------------------------------
      1          6           0       -0.318920   -1.405832    0.663387
      2          6           0       -0.318920   -0.212262    1.516760
      3          6           0        0.204527    0.951426    1.197559
      4          6           0        0.204527    0.951426   -1.197559
      5          6           0       -0.318920   -0.212262   -1.516760
      6          6           0       -0.318920   -1.405832   -0.663387
      7          1           0       -0.355372   -2.347095    1.179281
      8          1           0       -0.775920   -0.300892    2.483702
      9          1           0       -0.775920   -0.300892   -2.483702
     10          1           0       -0.355372   -2.347095   -1.179281
     11          8           0        0.887081    1.211520    0.000000
     12          1           0        0.182851    1.801914   -1.846086
     13          1           0        0.182851    1.801914    1.846086
 ---------------------------------------------------------------------

 The electronic state is 1-A'.
 Alpha  occ. eigenvalues --  -20.48267 -11.24268 -11.24221 -11.18285 -11.18281
 Alpha  occ. eigenvalues --  -11.17742 -11.17725  -1.40027  -1.10938  -1.07347
 Alpha  occ. eigenvalues --   -0.97465  -0.88367  -0.75507  -0.75161  -0.72021
 Alpha  occ. eigenvalues --   -0.64774  -0.63423  -0.59996  -0.58770  -0.55583
 Alpha  occ. eigenvalues --   -0.49787  -0.47489  -0.43868  -0.39184  -0.29876
 Alpha virt. eigenvalues --    0.10774   0.20549   0.26434   0.28369   0.30482
 Alpha virt. eigenvalues --    0.32382   0.33156   0.36764   0.36915   0.37498
 Alpha virt. eigenvalues --    0.48976   0.53822   0.55216   0.63406   0.70230

 Mulliken charges:
               1
     1  C   -0.215633
     2  C   -0.324153
     3  C    0.153523
     4  C    0.153523
     5  C   -0.324153
     6  C   -0.215633
     7  H    0.237984
     8  H    0.243699
     9  H    0.243699
    10  H    0.237984
    11  O   -0.683846
    12  H    0.246502
    13  H    0.246502
 Sum of Mulliken charges =   0.00000

 Dipole moment (field-independent basis, Debye):
    X=             -1.6647    Y=             -0.2665    Z=              0.0000  Tot=              1.6859
 Quadrupole moment (field-independent basis, Debye-Ang):
   XX=            -46.7316   YY=            -37.6022   ZZ=            -34.7193
   XY=             -0.5574   XZ=              0.0000   YZ=              0.0000

 Normal termination of Gaussian 09 at Fri Oct  5 10:55:05 2018.
