 Gaussian 09, Revision E.01,
 Gaussian 09:  ES64L-G09RevE.01 30-Nov-2015

 ----------------
 # freq hf/sto-3g
 ----------------

 -----------------
 oxepin-hf-sto.log
 -----------------
 Symbolic Z-matrix:
 Charge =  0 Multiplicity = 1

                         Standard orientation:
 ---------------------------------------------------------------------
 Center     Atomic      Atomic             Coordinates (Angstroms)
 Number     Number       Type             X           Y           Z
 ---------------------------------------------------------------------
      1          6           0        0.275639   -1.431900    0.661950
      2          6           0       -0.216321   -0.315760    1.505960
      3          6           0       -0.216321    0.957970    1.157920
      4          6           0       -0.216321    0.957970   -1.157920
      5          6           0       -0.216321   -0.315760   -1.505960
      6          6           0        0.275639   -1.431900   -0.661950
      7          1           0        0.591559   -2.322140    1.193510
      8          1           0       -0.640121   -0.584520    2.465420
      9          1           0       -0.640121   -0.584520   -2.465420
     10          1           0        0.591559   -2.322140   -1.193510
     11          8           0        0.406619    1.479530    0.000000
     12          1           0       -0.635901    1.726670   -1.807040
     13          1           0       -0.635901    1.726670    1.807040
 ---------------------------------------------------------------------

 SCF Done:  E(RHF) =  -301.665340499     A.U. after   12 cycles

 The electronic state is 1-A'.
 Alpha  occ. eigenvalues --  -20.29687 -11.08127 -11.08095 -11.03550 -11.03466
 Alpha  occ. eigenvalues --  -11.03217 -11.03212  -1.31852  -1.04853  -1.00464
 Alpha  occ. eigenvalues --   -0.91315  -0.81378  -0.69701  -0.67634  -0.65959
 Alpha  occ. eigenvalues --   -0.58398  -0.57140  -0.52352  -0.52186  -0.48899
 Alpha  occ. eigenvalues --   -0.43676  -0.38668  -0.37511  -0.32818  -0.24117
 Alpha virt. eigenvalues --    0.22731   0.32488   0.42611   0.52520   0.59040
 Alpha virt. eigenvalues --    0.59609   0.62419   0.69611   0.71968   0.73567
 Alpha virt. eigenvalues --    0.81509   0.90628   0.93532   1.00524   1.02121

 Mulliken charges:
               1
     1  C   -0.058512
     2  C   -0.085700
     3  C    0.058106
     4  C    0.058106
     5  C   -0.085700
     6  C   -0.058512
     7  H    0.064700
     8  H    0.069707
     9  H    0.069707
    10  H    0.064700
    11  O   -0.234826
    12  H    0.069113
    13  H    0.069113
 Sum of Mulliken charges =   0.00000

 Dipole moment (field-independent basis, Debye):
    X=             -1.1474    Y=             -0.7515    Z=              0.0000  Tot=              1.3716
 Quadrupole moment (field-independent basis, Debye-Ang):
   XX=            -39.2467   YY=            -37.6354   ZZ=            -34.4908
   XY=             -2.2528   XZ=              0.0000   YZ=              0.0000

  Exact polarizability:  11.550  -5.402  47.520   0.000   0.000  46.354
 Approx polarizability:  10.150  -3.440  46.172   0.000   0.000  40.238

                      1                      2                      3
                     A'                     A"                     A'
 Frequencies --    181.8471               324.2450               410.6741
 Red. masses --      3.9867                 3.0069                 5.0390
 Frc consts  --      0.0777                 0.1863                 0.5007
 IR Inten    --      3.2165                 0.9448                 2.2365
 Raman Activ --      2.5154                 2.0599                 2.6826

                      4                      5                      6
                     A"                     A'                     A"
 Frequencies --    493.0998               502.1526               709.3205
 Red. masses --      5.6385                 2.1736                 3.1648
 Frc consts  --      0.8078                 0.3229                 0.9382
 IR Inten    --      1.6562                11.4330                 0.0300
 Raman Activ --      4.1930                 3.7828                 1.1177

                      7                      8                      9
                     A'                     A'                     A"
 Frequencies --    854.9440               899.7869               908.9090
 Red. masses --      2.2123                 1.7393                 1.4506
 Frc consts  --      0.9527                 0.8297                 0.7061
 IR Inten    --     12.1251                11.1686                 5.9494
 Raman Activ --      1.5706                 6.8960                 7.9637

                     10                     11                     12
                     A'                     A"                     A'
 Frequencies --    972.0414              1028.1048              1051.7295
 Red. masses --      2.5273                 4.7299                 3.2640
 Frc consts  --      1.4069                 2.9456                 2.1272
 IR Inten    --      1.5319                 1.6380                 1.6779
 Raman Activ --      5.9786                 1.3513                19.9966

                     13                     14                     15
                     A"                     A'                     A"
 Frequencies --   1116.1839              1118.4430              1164.9791
 Red. masses --      2.3968                 2.2838                 1.3394
 Frc consts  --      1.7593                 1.6832                 1.0710
 IR Inten    --      3.1035                 2.1930                 1.5445
 Raman Activ --      1.2895                 1.4398                 1.8759

                     16                     17                     18
                     A'                     A"                     A"
 Frequencies --   1169.7295              1210.4388              1298.7808
 Red. masses --      1.4008                 1.2596                 1.9740
 Frc consts  --      1.1293                 1.0873                 1.9619
 IR Inten    --      0.1923                 0.1095                21.0896
 Raman Activ --      1.3746                 1.2006                 0.7320

                     19                     20                     21
                     A'                     A'                     A"
 Frequencies --   1408.5957              1414.3119              1467.3890
 Red. masses --      1.0539                 1.0974                 1.3233
 Frc consts  --      1.2321                 1.2933                 1.6788
 IR Inten    --      0.7149                 0.6350                 7.9637
 Raman Activ --      5.6225                37.3176                 7.1262

                     22                     23                     24
                     A"                     A'                     A"
 Frequencies --   1587.5345              1669.9992              1702.8690
 Red. masses --      1.3451                 1.5515                 1.8076
 Frc consts  --      1.9973                 2.5494                 3.0883
 IR Inten    --      7.9302                 0.4270                 4.0292
 Raman Activ --      0.9876                 4.1996                13.4813

                     25                     26                     27
                     A'                     A"                     A'
 Frequencies --   1989.0555              2014.8295              2037.4330
 Red. masses --      8.7100                 7.3319                 5.6889
 Frc consts  --     20.3031                17.5364                13.9137
 IR Inten    --      8.1803                10.0142                15.7425
 Raman Activ --     64.3175                 8.8945                 2.0285

                     28                     29                     30
                     A"                     A'                     A"
 Frequencies --   3667.6793              3675.0106              3698.1529
 Red. masses --      1.0896                 1.0928                 1.0892
 Frc consts  --      8.6358                 8.6958                 8.7769
 IR Inten    --      0.2039                27.8154                21.1297
 Raman Activ --     45.2021                49.5317                62.1824

                     31                     32                     33
                     A'                     A"                     A'
 Frequencies --   3719.9440              3722.0978              3727.8283
 Red. masses --      1.0999                 1.0997                 1.1033
 Frc consts  --      8.9676                 8.9761                 9.0335
 IR Inten    --      4.9532                 3.0934                 3.7558
 Raman Activ --     50.9093                25.5680               157.5363

 - Thermochemistry -
 -------------------
 Temperature   298.150 Kelvin.  Pressure   1.00000 Atm.
 Atom     1 has atomic number  6 and mass  12.00000

 Molecular mass:    94.04186 amu.
 Principal axes and moments of inertia in atomic units:
                           1         2         3
     Eigenvalues --   454.95100 482.76939 876.51596
           X           -0.06320   0.00000   0.99800
           Y            0.99800   0.00000   0.06320
           Z            0.00000   1.00000   0.00000
 This molecule is an asymmetric top.
 Rotational symmetry number  1.
 Warning -- assumption of classical behavior for rotation
           may cause significant error
 Rotational temperatures (Kelvin)      0.19038     0.17941     0.09882
 Rotational constants (GHZ):           3.96689     3.73831     2.05899
 Zero-point vibrational energy     316520.8 (Joules/Mol)
                                   75.65028 (Kcal/Mol)
 Warning -- explicit consideration of   5 degrees of freedom as
           vibrations may cause significant error
 Vibrational temperatures:    261.64   466.52   590.87   709.46   722.48
          (Kelvin)           1020.55  1230.07  1294.59  1307.72  1398.55
                             1479.21  1513.20  1605.94  1609.19  1676.14
                             1682.98  1741.55  1868.65  2026.65  2034.88
                             2111.24  2284.11  2402.75  2450.05  2861.80
                             2898.89  2931.41  5276.97  5287.51  5320.81
                             5352.16  5355.26  5363.51

 Zero-point correction=                           0.120556 (Hartree/Particle)
 Thermal correction to Energy=                    0.125645
 Thermal correction to Enthalpy=                  0.126589
 Thermal correction to Gibbs Free Energy=         0.091671
 Sum of electronic and zero-point Energies=           -301.544784
 Sum of electronic and thermal Energies=              -301.539695
 Sum of electronic and thermal Enthalpies=            -301.538751
 Sum of electronic and thermal Free Energies=         -301.573669

                     E (Thermal)             CV                S
                      KCal/Mol        Cal/Mol-Kelvin    Cal/Mol-Kelvin
 Total                   78.844             18.641             73.491
 Electronic               0.000              0.000              0.000
 Translational            0.889              2.981             39.535
 Rotational               0.889              2.981             26.757
 Vibrational             77.066             12.679              7.200
 Vibration     1          0.630              1.864              2.309
 Vibration     2          0.709              1.627              1.289
 Vibration     3          0.775              1.447              0.924
 Vibration     4          0.849              1.265              0.676
 Vibration     5          0.857              1.245              0.653

 Optimization completed.
    -- Stationary point found.
 Normal termination of Gaussian 09 at Fri Oct  5 10:43:50 2018.
