 Gaussian 09, Revision E.01,
 Gaussian 09:  ES64L-G09RevE.01 30-Nov-2015

 ---------------
 # freq hf/3-21g
 ---------------

 ------------------
 oxepin-hf-321g.log
 ------------------
 Symbolic Z-matrix:
 Charge =  0 Multiplicity = 1

                         Standard orientation:
 ---------------------------------------------------------------------
 Center     Atomic      Atomic             Coordinates (Angstroms)
 Number     Number       Type             X           Y           Z
 ---------------------------------------------------------------------
      1          6           0        0.318921    1.405832    0.663390
      2          6           0        0.318921    0.212262    1.516760
      3          6           0       -0.204529   -0.951428    1.197560
      4          6           0       -0.204529   -0.951428   -1.197560
      5          6           0        0.318921    0.212262   -1.516760
      6          6           0        0.318921    1.405832   -0.663390
      7          1           0        0.355371    2.347092    1.179280
      8          1           0        0.775921    0.300892    2.483700
      9          1           0        0.775921    0.300892   -2.483700
     10          1           0        0.355371    2.347092   -1.179280
     11          8           0       -0.887079   -1.211518    0.000000
     12          1           0       -0.182849   -1.801908   -1.846090
     13          1           0       -0.182849   -1.801908    1.846090
 ---------------------------------------------------------------------

 SCF Done:  E(RHF) =  -303.790987131     A.U. after   12 cycles

 The electronic state is 1-A'.
 Alpha  occ. eigenvalues --  -20.48267 -11.24268 -11.24221 -11.18285 -11.18281
 Alpha  occ. eigenvalues --  -11.17742 -11.17725  -1.40027  -1.10938  -1.07347
 Alpha  occ. eigenvalues --   -0.97465  -0.88367  -0.75507  -0.75161  -0.72021
 Alpha  occ. eigenvalues --   -0.64774  -0.63423  -0.59996  -0.58770  -0.55583
 Alpha  occ. eigenvalues --   -0.49787  -0.47489  -0.43868  -0.39184  -0.29876
 Alpha virt. eigenvalues --    0.10773   0.20549   0.26434   0.28369   0.30482
 Alpha virt. eigenvalues --    0.32382   0.33157   0.36765   0.36915   0.37498
 Alpha virt. eigenvalues --    0.48977   0.53822   0.55216   0.63406   0.70229

 Mulliken charges:
               1
     1  C   -0.215633
     2  C   -0.324153
     3  C    0.153525
     4  C    0.153525
     5  C   -0.324153
     6  C   -0.215633
     7  H    0.237984
     8  H    0.243699
     9  H    0.243699
    10  H    0.237984
    11  O   -0.683849
    12  H    0.246502
    13  H    0.246502
 Sum of Mulliken charges =   0.00000

 Dipole moment (field-independent basis, Debye):
    X=              1.6647    Y=              0.2665    Z=              0.0000  Tot=              1.6859
 Quadrupole moment (field-independent basis, Debye-Ang):
   XX=            -46.7316   YY=            -37.6022   ZZ=            -34.7193
   XY=             -0.5574   XZ=              0.0000   YZ=              0.0000

  Exact polarizability:  23.837  12.380  65.239   0.000   0.000  66.469
 Approx polarizability:  24.264  13.516  60.366   0.000   0.000  57.276

                      1                      2                      3
                     A'                     A"                     A'
 Frequencies --    163.0047               306.4522               401.9523
 Red. masses --      3.8831                 2.8548                 5.5672
 Frc consts  --      0.0608                 0.1580                 0.5300
 IR Inten    --      9.4215                 2.6762                 5.9072
 Raman Activ --      3.5596                 2.7572                 3.1337

                      4                      5                      6
                     A'                     A"                     A"
 Frequencies --    465.4298               490.9032               690.5235
 Red. masses --      2.1182                 5.2557                 2.9913
 Frc consts  --      0.2703                 0.7462                 0.8404
 IR Inten    --     56.1756                 2.2336                 0.1070
 Raman Activ --      7.4491                 6.0744                 2.0540

                      7                      8                      9
                     A'                     A'                     A"
 Frequencies --    841.9310               860.3565               875.5107
 Red. masses --      2.3508                 1.7461                 1.4338
 Frc consts  --      0.9818                 0.7615                 0.6476
 IR Inten    --     80.5271                25.5498                26.6802
 Raman Activ --      2.7576                10.8012                12.5321

                     10                     11                     12
                     A'                     A'                     A"
 Frequencies --    909.0309               953.4480               990.9390
 Red. masses --      4.3549                 2.0670                 3.8098
 Frc consts  --      2.1203                 1.1071                 2.2042
 IR Inten    --      4.6639                10.5784                11.2060
 Raman Activ --     10.0140                19.5375                 4.8570

                     13                     14                     15
                     A'                     A"                     A"
 Frequencies --   1037.2869              1038.8692              1129.4371
 Red. masses --      2.7503                 3.4144                 1.4208
 Frc consts  --      1.7435                 2.1711                 1.0678
 IR Inten    --      5.8788                 1.3395                 4.7964
 Raman Activ --      1.2040                 0.8505                 3.9829

                     16                     17                     18
                     A'                     A"                     A"
 Frequencies --   1135.4011              1157.4966              1170.4210
 Red. masses --      1.3983                 1.5219                 2.3322
 Frc consts  --      1.0621                 1.2014                 1.8824
 IR Inten    --      0.5820                31.8722                59.4575
 Raman Activ --      6.8009                 5.8143                 1.8059

                     19                     20                     21
                     A'                     A'                     A"
 Frequencies --   1372.0540              1388.1801              1421.2704
 Red. masses --      1.1283                 1.0580                 1.2723
 Frc consts  --      1.2514                 1.2012                 1.5143
 IR Inten    --      2.8184                 0.0769                32.2651
 Raman Activ --     35.9487                 4.9606                 4.8306

                     22                     23                     24
                     A"                     A'                     A"
 Frequencies --   1512.2108              1573.1783              1596.1142
 Red. masses --      1.2041                 1.3817                 1.4716
 Frc consts  --      1.6223                 2.0147                 2.2088
 IR Inten    --      4.3233                 6.4382                 0.4120
 Raman Activ --      0.9314                 1.4280                 8.4250

                     25                     26                     27
                     A'                     A"                     A'
 Frequencies --   1820.9737              1841.5736              1872.6775
 Red. masses --      7.7630                 6.2640                 5.2325
 Frc consts  --     15.1667                12.5164                10.8114
 IR Inten    --      8.7081                14.4446                28.7157
 Raman Activ --     96.2684                18.1464                18.8725

                     28                     29                     30
                     A"                     A'                     A"
 Frequencies --   3326.4486              3344.3075              3351.3686
 Red. masses --      1.0841                 1.0902                 1.0859
 Frc consts  --      7.0676                 7.1837                 7.1861
 IR Inten    --      0.2671                13.0412                 7.5939
 Raman Activ --     47.7375               103.5617                78.4095

                     31                     32                     33
                     A'                     A"                     A'
 Frequencies --   3359.4274              3396.3686              3402.5291
 Red. masses --      1.0926                 1.0984                 1.1003
 Frc consts  --      7.2652                 7.4649                 7.5056
 IR Inten    --     18.3653                30.2461                13.5298
 Raman Activ --    131.8759                68.7560               220.5562

 - Thermochemistry -
 -------------------
 Temperature   298.150 Kelvin.  Pressure   1.00000 Atm.
 Atom     1 has atomic number  6 and mass  12.00000

 Molecular mass:    94.04186 amu.
 Principal axes and moments of inertia in atomic units:
                           1         2         3
     Eigenvalues --   461.27746 469.55207 881.76995
           X            0.33357   0.00000   0.94273
           Y            0.94273   0.00000  -0.33357
           Z            0.00000   1.00000   0.00000
 This molecule is an asymmetric top.
 Rotational symmetry number  1.
 Warning -- assumption of classical behavior for rotation
           may cause significant error
 Rotational temperatures (Kelvin)      0.18777     0.18446     0.09823
 Rotational constants (GHZ):           3.91249     3.84354     2.04673
 Zero-point vibrational energy     294263.9 (Joules/Mol)
                                   70.33075 (Kcal/Mol)
 Warning -- explicit consideration of   5 degrees of freedom as
           vibrations may cause significant error
 Vibrational temperatures:    234.53   440.92   578.32   669.65   706.30
          (Kelvin)            993.51  1211.35  1237.86  1259.66  1307.89
                             1371.80  1425.74  1492.42  1494.70  1625.01
                             1633.59  1665.38  1683.97  1974.08  1997.28
                             2044.89  2175.73  2263.45  2296.45  2619.97
                             2649.61  2694.36  4786.01  4811.71  4821.87
                             4833.46  4886.61  4895.47

 Zero-point correction=                           0.112079 (Hartree/Particle)
 Thermal correction to Energy=                    0.117358
 Thermal correction to Enthalpy=                  0.118303
 Thermal correction to Gibbs Free Energy=         0.083058
 Sum of electronic and zero-point Energies=           -303.678908
 Sum of electronic and thermal Energies=              -303.673629
 Sum of electronic and thermal Enthalpies=            -303.672685
 Sum of electronic and thermal Free Energies=         -303.707929

                     E (Thermal)             CV                S
                      KCal/Mol        Cal/Mol-Kelvin    Cal/Mol-Kelvin
 Total                   73.643             19.616             74.179
 Electronic               0.000              0.000              0.000
 Translational            0.889              2.981             39.535
 Rotational               0.889              2.981             26.749
 Vibrational             71.866             13.654              7.895
 Vibration     1          0.623              1.888              2.515
 Vibration     2          0.697              1.661              1.381
 Vibration     3          0.768              1.466              0.956
 Vibration     4          0.823              1.327              0.750
 Vibration     5          0.847              1.270              0.681

 Optimization completed.
    -- Stationary point found.
 Normal termination of Gaussian 09 at Fri Oct  5 10:56:32 2018.
