 Gaussian 09, Revision E.01,
 Gaussian 09:  ES64L-G09RevE.01 30-Nov-2015

 ---------------
 # opt hf/sto-3g
 ---------------

 -------------
 oxepin-hf.log
 -------------
 Symbolic Z-matrix:
 Charge =  0 Multiplicity = 1

 SCF Done:  E(RHF) =  -301.659240304     A.U. after   12 cycles
 SCF Done:  E(RHF) =  -301.665016654     A.U. after   11 cycles
 SCF Done:  E(RHF) =  -301.665289641     A.U. after   10 cycles
 SCF Done:  E(RHF) =  -301.665318018     A.U. after    9 cycles
 SCF Done:  E(RHF) =  -301.665333855     A.U. after    9 cycles
 SCF Done:  E(RHF) =  -301.665338895     A.U. after    9 cycles
 SCF Done:  E(RHF) =  -301.665340501     A.U. after    8 cycles
 Optimization completed.
    -- Stationary point found.

                         Standard orientation:
 ---------------------------------------------------------------------
 Center     Atomic      Atomic             Coordinates (Angstroms)
 Number     Number       Type             X           Y           Z
 ---------------------------------------------------------------------
      1          6           0        0.275642   -1.431897    0.661951
      2          6           0       -0.216322   -0.315757    1.505963
      3          6           0       -0.216322    0.957966    1.157915
      4          6           0       -0.216322    0.957966   -1.157915
      5          6           0       -0.216322   -0.315757   -1.505963
      6          6           0        0.275642   -1.431897   -0.661951
      7          1           0        0.591563   -2.322139    1.193511
      8          1           0       -0.640122   -0.584523    2.465423
      9          1           0       -0.640122   -0.584523   -2.465423
     10          1           0        0.591563   -2.322139   -1.193511
     11          8           0        0.406617    1.479531    0.000000
     12          1           0       -0.635896    1.726666   -1.807043
     13          1           0       -0.635896    1.726666    1.807043
 ---------------------------------------------------------------------

 The electronic state is 1-A'.
 Alpha  occ. eigenvalues --  -20.29688 -11.08127 -11.08095 -11.03550 -11.03466
 Alpha  occ. eigenvalues --  -11.03217 -11.03212  -1.31853  -1.04853  -1.00464
 Alpha  occ. eigenvalues --   -0.91315  -0.81378  -0.69701  -0.67634  -0.65959
 Alpha  occ. eigenvalues --   -0.58398  -0.57140  -0.52352  -0.52186  -0.48899
 Alpha  occ. eigenvalues --   -0.43675  -0.38668  -0.37511  -0.32818  -0.24118
 Alpha virt. eigenvalues --    0.22731   0.32488   0.42612   0.52520   0.59040
 Alpha virt. eigenvalues --    0.59609   0.62419   0.69611   0.71968   0.73567
 Alpha virt. eigenvalues --    0.81508   0.90628   0.93532   1.00523   1.02122

 Mulliken charges:
               1
     1  C   -0.058512
     2  C   -0.085701
     3  C    0.058106
     4  C    0.058106
     5  C   -0.085701
     6  C   -0.058512
     7  H    0.064699
     8  H    0.069708
     9  H    0.069708
    10  H    0.064699
    11  O   -0.234825
    12  H    0.069112
    13  H    0.069112
 Sum of Mulliken charges =   0.00000

 Dipole moment (field-independent basis, Debye):
    X=             -1.1474    Y=             -0.7515    Z=              0.0000  Tot=              1.3715
 Quadrupole moment (field-independent basis, Debye-Ang):
   XX=            -39.2467   YY=            -37.6354   ZZ=            -34.4908
   XY=             -2.2528   XZ=              0.0000   YZ=              0.0000

 Normal termination of Gaussian 09 at Fri Oct  5 10:40:11 2018.
