 Gaussian 09, Revision E.01,
 Gaussian 09:  ES64L-G09RevE.01 30-Nov-2015

 ---------------
 # freq bp86/SVP
 ---------------

 -----------
 ts-bp86.log
 -----------
 Symbolic Z-matrix:
 Charge =  0 Multiplicity = 1

                         Standard orientation:
 ---------------------------------------------------------------------
 Center     Atomic      Atomic             Coordinates (Angstroms)
 Number     Number       Type             X           Y           Z
 ---------------------------------------------------------------------
      1          6           0       -1.420899    0.705810    0.166319
      2          6           0       -0.306449    1.459660   -0.248611
      3          6           0        0.996221    0.938640   -0.225291
      4          6           0        0.996221   -0.938640   -0.225301
      5          6           0       -0.306449   -1.459660   -0.248611
      6          6           0       -1.420899   -0.705810    0.166319
      7          1           0       -2.389479    1.218800    0.287859
      8          1           0       -0.457669    2.454690   -0.700131
      9          1           0       -0.457669   -2.454690   -0.700141
     10          1           0       -2.389479   -1.218800    0.287859
     11          8           0        1.347351    0.000000    0.748989
     12          1           0        1.844501   -1.430740   -0.738151
     13          1           0        1.844501    1.430740   -0.738151
 ---------------------------------------------------------------------

 SCF Done:  E(RB-P86) =  -307.167005146     A.U. after   15 cycles

 The electronic state is 1-A.
 Alpha  occ. eigenvalues --  -18.80590  -9.98271  -9.98270  -9.92541  -9.92525
 Alpha  occ. eigenvalues --   -9.92261  -9.92256  -0.99244  -0.74118  -0.69459
 Alpha  occ. eigenvalues --   -0.62162  -0.58010  -0.51039  -0.47778  -0.47353
 Alpha  occ. eigenvalues --   -0.42112  -0.41181  -0.40054  -0.37687  -0.34072
 Alpha  occ. eigenvalues --   -0.32406  -0.30317  -0.24032  -0.21922  -0.21845
 Alpha virt. eigenvalues --   -0.05336  -0.04717   0.03617   0.05560   0.06779
 Alpha virt. eigenvalues --    0.07510   0.10794   0.11682   0.12533   0.13371
 Alpha virt. eigenvalues --    0.19172   0.25086   0.25699   0.27072   0.33881

 Mulliken charges:
               1
     1  C   -0.024319
     2  C    0.013344
     3  C    0.062017
     4  C    0.062016
     5  C    0.013345
     6  C   -0.024320
     7  H    0.014744
     8  H    0.018720
     9  H    0.018721
    10  H    0.014744
    11  O   -0.243220
    12  H    0.037104
    13  H    0.037103
 Sum of Mulliken charges =   0.00000

 Dipole moment (field-independent basis, Debye):
    X=             -0.3321    Y=              0.0000    Z=             -1.5681  Tot=              1.6029
 Quadrupole moment (field-independent basis, Debye-Ang):
   XX=            -37.9415   YY=            -36.6859   ZZ=            -44.1398
   XY=              0.0000   XZ=             -2.7237   YZ=              0.0000

  Exact polarizability:  79.249   0.000  82.479  -7.447   0.000  36.650
 Approx polarizability: 168.316   0.000 179.028 -14.985   0.000  65.358

 ******    1 imaginary frequencies (negative Signs) ******

                      1                      2                      3
                      A                      A                      A
 Frequencies --   -406.8718               290.5405               313.4400
 Red. masses --      6.0167                 5.1060                 2.9693
 Frc consts  --      0.5868                 0.2539                 0.1719
 IR Inten    --      0.0630                 2.1914                 0.9329

                      4                      5                      6
                      A                      A                      A
 Frequencies --    445.3128               471.0891               621.5988
 Red. masses --      3.3678                 5.6580                 3.7546
 Frc consts  --      0.3935                 0.7398                 0.8547
 IR Inten    --      5.8363                 2.1567                 1.9765

                      7                      8                      9
                      A                      A                      A
 Frequencies --    683.7973               717.1911               753.6220
 Red. masses --      1.2338                 3.0896                 1.2537
 Frc consts  --      0.3399                 0.9363                 0.4195
 IR Inten    --     68.9922                 7.9419                20.7139

                     10                     11                     12
                      A                      A                      A
 Frequencies --    809.7769               842.6142               880.6774
 Red. masses --      1.3879                 2.0119                 1.3839
 Frc consts  --      0.5362                 0.8416                 0.6324
 IR Inten    --     12.8138                 0.2045                 2.5590

                     13                     14                     15
                      A                      A                      A
 Frequencies --    917.8266               948.0603               960.7200
 Red. masses --      2.3748                 1.3233                 3.5117
 Frc consts  --      1.1787                 0.7008                 1.9097
 IR Inten    --      0.0001                 0.1418                 4.9917

                     16                     17                     18
                      A                      A                      A
 Frequencies --    970.3643              1029.9539              1082.3133
 Red. masses --      4.7862                 1.6991                 1.6235
 Frc consts  --      2.6553                 1.0620                 1.1205
 IR Inten    --      6.1097                12.0772                17.3555

                     19                     20                     21
                      A                      A                      A
 Frequencies --   1158.8691              1172.0374              1199.7631
 Red. masses --      1.1067                 1.4146                 1.6142
 Frc consts  --      0.8757                 1.1449                 1.3690
 IR Inten    --      1.6245                 6.6539                19.2099

                     22                     23                     24
                      A                      A                      A
 Frequencies --   1294.3380              1373.4176              1420.5977
 Red. masses --      1.1878                 1.7337                 2.0081
 Frc consts  --      1.1724                 1.9267                 2.3877
 IR Inten    --      2.2045                 4.6012                 0.5063

                     25                     26                     27
                      A                      A                      A
 Frequencies --   1454.1114              1531.0252              1572.4177
 Red. masses --      5.3282                 4.1234                 5.9523
 Frc consts  --      6.6379                 5.6947                 8.6710
 IR Inten    --     11.1301                 6.3731                 0.2126

                     28                     29                     30
                      A                      A                      A
 Frequencies --   3056.5237              3063.3275              3087.7701
 Red. masses --      1.0883                 1.0896                 1.0857
 Frc consts  --      5.9901                 6.0244                 6.0989
 IR Inten    --      9.1565                22.9584                 0.1576

                     31                     32                     33
                      A                      A                      A
 Frequencies --   3094.7846              3101.3374              3111.1793
 Red. masses --      1.0904                 1.0943                 1.0975
 Frc consts  --      6.1532                 6.2011                 6.2589
 IR Inten    --     12.5006                16.4941                 7.6143

 - Thermochemistry -
 -------------------
 Temperature   298.150 Kelvin.  Pressure   1.00000 Atm.
 Atom     1 has atomic number  6 and mass  12.00000

 Molecular mass:    94.04186 amu.
 Principal axes and moments of inertia in atomic units:
                           1         2         3
     Eigenvalues --   421.14255 488.69026 806.76708
           X            0.99951   0.00000  -0.03130
           Y            0.00000   1.00000   0.00000
           Z            0.03130   0.00000   0.99951
 This molecule is an asymmetric top.
 Rotational symmetry number  1.
 Rotational temperatures (Kelvin)      0.20566     0.17724     0.10736
 Rotational constants (GHZ):           4.28535     3.69302     2.23700
    1 imaginary frequencies ignored.
 Zero-point vibrational energy     259771.5 (Joules/Mol)
                                   62.08687 (Kcal/Mol)
 Warning -- explicit consideration of   4 degrees of freedom as
           vibrations may cause significant error
 Vibrational temperatures:    418.02   450.97   640.71   677.79   894.34
          (Kelvin)            983.83  1031.88  1084.29  1165.09  1212.33
                             1267.10  1320.55  1364.05  1382.26  1396.14
                             1481.87  1557.21  1667.35  1686.30  1726.19
                             1862.26  1976.04  2043.92  2092.14  2202.80
                             2262.36  4397.65  4407.44  4442.61  4452.70
                             4462.13  4476.29

 Zero-point correction=                           0.098942 (Hartree/Particle)
 Thermal correction to Energy=                    0.104126
 Thermal correction to Enthalpy=                  0.105071
 Thermal correction to Gibbs Free Energy=         0.070315
 Sum of electronic and zero-point Energies=           -307.068063
 Sum of electronic and thermal Energies=              -307.062879
 Sum of electronic and thermal Enthalpies=            -307.061935
 Sum of electronic and thermal Free Energies=         -307.096690

                     E (Thermal)             CV                S
                      KCal/Mol        Cal/Mol-Kelvin    Cal/Mol-Kelvin
 Total                   65.340             20.734             73.149
 Electronic               0.000              0.000              0.000
 Translational            0.889              2.981             39.535
 Rotational               0.889              2.981             26.610
 Vibrational             63.563             14.773              7.005
 Vibration     1          0.687              1.691              1.471
 Vibration     2          0.701              1.648              1.344
 Vibration     3          0.805              1.371              0.810
 Vibration     4          0.828              1.314              0.735

 Optimization completed.
    -- Stationary point found.
 Normal termination of Gaussian 09 at Fri Oct  5 10:23:00 2018.
