 Gaussian 09, Revision E.01,
 Gaussian 09:  ES64L-G09RevE.01 30-Nov-2015

 -----------------------------------
 # opt=(ts,calcfc,noeigen) hf/sto-3g
 -----------------------------------

 ---------
 ts-hf.log
 ---------
 Symbolic Z-matrix:
 Charge =  0 Multiplicity = 1

 SCF Done:  E(RHF) =  -301.639738535     A.U. after   13 cycles

  Exact polarizability:   0.000   0.000   0.000   0.000   0.000   0.000
 Approx polarizability:  12.192  -5.630  46.996   0.000   0.000  50.444

 SCF Done:  E(RHF) =  -301.643484469     A.U. after   12 cycles
 SCF Done:  E(RHF) =  -301.643572528     A.U. after   11 cycles
 SCF Done:  E(RHF) =  -301.643573531     A.U. after    9 cycles
 Optimization completed.
    -- Stationary point found.

                         Standard orientation:
 ---------------------------------------------------------------------
 Center     Atomic      Atomic             Coordinates (Angstroms)
 Number     Number       Type             X           Y           Z
 ---------------------------------------------------------------------
      1          6           0        0.199313   -1.403875    0.688487
      2          6           0       -0.247036   -0.307113    1.446087
      3          6           0       -0.247036    0.973452    0.945403
      4          6           0       -0.247036    0.973452   -0.945403
      5          6           0       -0.247036   -0.307113   -1.446087
      6          6           0        0.199313   -1.403875   -0.688487
      7          1           0        0.334130   -2.351707    1.195396
      8          1           0       -0.714056   -0.487323    2.405688
      9          1           0       -0.714056   -0.487323   -2.405688
     10          1           0        0.334130   -2.351707   -1.195396
     11          8           0        0.730769    1.368695    0.000000
     12          1           0       -0.774601    1.789465   -1.439063
     13          1           0       -0.774601    1.789465    1.439063
 ---------------------------------------------------------------------

 The electronic state is 1-A'.
 Alpha  occ. eigenvalues --  -20.31457 -11.09341 -11.09289 -11.03101 -11.03075
 Alpha  occ. eigenvalues --  -11.03054 -11.03050  -1.35153  -1.05752  -0.98970
 Alpha  occ. eigenvalues --   -0.89789  -0.81399  -0.72974  -0.67251  -0.65263
 Alpha  occ. eigenvalues --   -0.58125  -0.57787  -0.54730  -0.51245  -0.47821
 Alpha  occ. eigenvalues --   -0.45656  -0.42064  -0.37334  -0.26480  -0.25923
 Alpha virt. eigenvalues --    0.25420   0.25495   0.44943   0.56477   0.59948
 Alpha virt. eigenvalues --    0.60079   0.65977   0.66137   0.74200   0.75077
 Alpha virt. eigenvalues --    0.80075   0.84509   0.90904   0.93625   1.04983

 Mulliken charges:
               1
     1  C   -0.062704
     2  C   -0.079980
     3  C    0.039045
     4  C    0.039045
     5  C   -0.079980
     6  C   -0.062704
     7  H    0.063565
     8  H    0.069803
     9  H    0.069803
    10  H    0.063565
    11  O   -0.204739
    12  H    0.072641
    13  H    0.072641
 Sum of Mulliken charges =   0.00000

 Dipole moment (field-independent basis, Debye):
    X=             -1.6057    Y=             -0.2566    Z=              0.0000  Tot=              1.6261
 Quadrupole moment (field-independent basis, Debye-Ang):
   XX=            -39.9088   YY=            -36.7219   ZZ=            -35.3948
   XY=             -2.4650   XZ=              0.0000   YZ=              0.0000

 Normal termination of Gaussian 09 at Fri Oct  5 10:42:57 2018.
