 Gaussian 09, Revision E.01,
 Gaussian 09:  ES64L-G09RevE.01 30-Nov-2015

 ---------------
 # freq hf/3-21g
 ---------------

 --------------
 ts-hf-321g.log
 --------------
 Symbolic Z-matrix:
 Charge =  0 Multiplicity = 1

                         Standard orientation:
 ---------------------------------------------------------------------
 Center     Atomic      Atomic             Coordinates (Angstroms)
 Number     Number       Type             X           Y           Z
 ---------------------------------------------------------------------
      1          6           0        0.337639    1.363330    0.701810
      2          6           0        0.337639    0.207260    1.436860
      3          6           0       -0.102111   -1.004420    0.910390
      4          6           0       -0.102111   -1.004420   -0.910390
      5          6           0        0.337639    0.207260   -1.436860
      6          6           0        0.337639    1.363330   -0.701810
      7          1           0        0.565379    2.288250    1.195480
      8          1           0        0.761829    0.205480    2.422670
      9          1           0        0.761829    0.205480   -2.422670
     10          1           0        0.565379    2.288250   -1.195480
     11          8           0       -1.206821   -0.986170    0.000000
     12          1           0        0.061069   -1.946080   -1.388900
     13          1           0        0.061069   -1.946080    1.388900
 ---------------------------------------------------------------------

 SCF Done:  E(RHF) =  -303.751528562     A.U. after   13 cycles

 The electronic state is 1-A'.
 Alpha  occ. eigenvalues --  -20.48746 -11.25335 -11.25331 -11.18380 -11.18339
 Alpha  occ. eigenvalues --  -11.18236 -11.18208  -1.42092  -1.12450  -1.05157
 Alpha  occ. eigenvalues --   -0.95424  -0.87970  -0.79554  -0.73617  -0.70466
 Alpha  occ. eigenvalues --   -0.64915  -0.63841  -0.61853  -0.56912  -0.53297
 Alpha  occ. eigenvalues --   -0.52615  -0.48869  -0.45496  -0.33360  -0.32699
 Alpha virt. eigenvalues --    0.12452   0.14847   0.25420   0.30375   0.31254
 Alpha virt. eigenvalues --    0.31662   0.35599   0.36311   0.38352   0.38656
 Alpha virt. eigenvalues --    0.45718   0.50637   0.53637   0.54285   0.73203

 Mulliken charges:
               1
     1  C   -0.227030
     2  C   -0.231896
     3  C   -0.009211
     4  C   -0.009211
     5  C   -0.231896
     6  C   -0.227030
     7  H    0.240906
     8  H    0.249711
     9  H    0.249711
    10  H    0.240906
    11  O   -0.540088
    12  H    0.247564
    13  H    0.247564
 Sum of Mulliken charges =   0.00000

 Dipole moment (field-independent basis, Debye):
    X=              2.5961    Y=             -0.1826    Z=              0.0000  Tot=              2.6025
 Quadrupole moment (field-independent basis, Debye-Ang):
   XX=            -47.8992   YY=            -36.1477   ZZ=            -35.9231
   XY=             -0.5761   XZ=              0.0000   YZ=              0.0000

  Exact polarizability:  24.456   7.714  66.007   0.000   0.000  70.181
 Approx polarizability:  25.006   7.680  65.314   0.000   0.000  71.209

 ******    1 imaginary frequencies (negative Signs) ******

                      1                      2                      3
                     A'                     A'                     A"
 Frequencies --   -720.7467               324.4510               369.9065
 Red. masses --      6.0223                 5.4928                 3.1929
 Frc consts  --      1.8432                 0.3407                 0.2574
 IR Inten    --      5.9124                 4.3812                 0.6914
 Raman Activ --     12.2683                 5.0233                 0.8747

                      4                      5                      6
                     A'                     A"                     A"
 Frequencies --    514.7731               546.6008               725.8825
 Red. masses --      3.3026                 6.4074                 3.1004
 Frc consts  --      0.5156                 1.1279                 0.9625
 IR Inten    --     10.3593                 1.7205                 5.1669
 Raman Activ --      7.6285                 7.0797                 1.6241

                      7                      8                      9
                     A'                     A'                     A"
 Frequencies --    788.3097               815.9497               902.1087
 Red. masses --      3.2669                 1.4114                 1.6311
 Frc consts  --      1.1962                 0.5536                 0.7821
 IR Inten    --     24.1687                99.7989                20.1552
 Raman Activ --      2.7605                 6.7266                 1.4563

                     10                     11                     12
                     A'                     A"                     A"
 Frequencies --    955.7589               965.1684              1006.2714
 Red. masses --      1.3073                 2.4659                 2.4800
 Frc consts  --      0.7036                 1.3534                 1.4795
 IR Inten    --     14.2153                 5.3309                 1.6679
 Raman Activ --      2.5807                 3.7265                 2.1715

                     13                     14                     15
                     A'                     A'                     A"
 Frequencies --   1044.9207              1092.7219              1093.5207
 Red. masses --      4.4170                 1.4059                 2.2148
 Frc consts  --      2.8415                 0.9891                 1.5604
 IR Inten    --     11.4360                 5.6030                 0.8884
 Raman Activ --     42.0427                 1.3636                 0.9960

                     16                     17                     18
                     A'                     A"                     A"
 Frequencies --   1127.8884              1149.8874              1197.8064
 Red. masses --      2.5697                 1.3477                 1.9680
 Frc consts  --      1.9261                 1.0499                 1.6636
 IR Inten    --     13.7687                 1.0980                 3.9434
 Raman Activ --      2.9043                 0.3317                 2.1665

                     19                     20                     21
                     A'                     A"                     A'
 Frequencies --   1286.0516              1340.1113              1348.8647
 Red. masses --      1.9129                 1.1849                 1.1964
 Frc consts  --      1.8640                 1.2538                 1.2825
 IR Inten    --      6.2430                 0.1798                 1.0852
 Raman Activ --      3.0864                 4.7752                 3.2048

                     22                     23                     24
                     A'                     A"                     A'
 Frequencies --   1466.8325              1487.7217              1602.7122
 Red. masses --      1.8002                 1.2829                 1.9015
 Frc consts  --      2.2821                 1.6730                 2.8777
 IR Inten    --      0.5748                 1.7427                14.1157
 Raman Activ --     11.1604                 2.6515                 0.7645

                     25                     26                     27
                     A"                     A'                     A"
 Frequencies --   1606.7126              1676.7150              1757.0077
 Red. masses --      1.6839                 2.7001                 4.1700
 Frc consts  --      2.5611                 4.4725                 7.5847
 IR Inten    --      4.2056                 7.1475                 0.0060
 Raman Activ --      2.7174                12.1466                14.5891

                     28                     29                     30
                     A"                     A'                     A"
 Frequencies --   3338.8532              3346.0681              3357.1873
 Red. masses --      1.0849                 1.0869                 1.0916
 Frc consts  --      7.1256                 7.1698                 7.2488
 IR Inten    --      0.0010                 1.6935                13.0530
 Raman Activ --     29.0287               126.2518                67.7750

                     31                     32                     33
                     A'                     A"                     A'
 Frequencies --   3371.2965              3398.1859              3407.7969
 Red. masses --      1.0951                 1.0936                 1.0951
 Frc consts  --      7.3336                 7.4406                 7.4932
 IR Inten    --     20.0767                 9.9208                14.1224
 Raman Activ --    147.6144                61.2483               200.9266

 - Thermochemistry -
 -------------------
 Temperature   298.150 Kelvin.  Pressure   1.00000 Atm.
 Atom     1 has atomic number  6 and mass  12.00000

 Molecular mass:    94.04186 amu.
 Principal axes and moments of inertia in atomic units:
                           1         2         3
     Eigenvalues --   411.46155 480.04591 781.80769
           X            0.38534   0.00000   0.92277
           Y            0.92277   0.00000  -0.38534
           Z            0.00000   1.00000   0.00000
 This molecule is an asymmetric top.
 Rotational symmetry number  1.
 Rotational temperatures (Kelvin)      0.21050     0.18043     0.11079
 Rotational constants (GHZ):           4.38617     3.75952     2.30842
    1 imaginary frequencies ignored.
 Zero-point vibrational energy     289580.3 (Joules/Mol)
                                   69.21135 (Kcal/Mol)
 Warning -- explicit consideration of   4 degrees of freedom as
           vibrations may cause significant error
 Vibrational temperatures:    466.81   532.21   740.64   786.44  1044.38
          (Kelvin)           1134.20  1173.97  1297.93  1375.12  1388.66
                             1447.80  1503.41  1572.18  1573.33  1622.78
                             1654.43  1723.37  1850.34  1928.12  1940.71
                             2110.44  2140.50  2305.94  2311.70  2412.42
                             2527.94  4803.86  4814.24  4830.24  4850.54
                             4889.23  4903.05

 Zero-point correction=                           0.110295 (Hartree/Particle)
 Thermal correction to Energy=                    0.114891
 Thermal correction to Enthalpy=                  0.115835
 Thermal correction to Gibbs Free Energy=         0.081991
 Sum of electronic and zero-point Energies=           -303.641233
 Sum of electronic and thermal Energies=              -303.636638
 Sum of electronic and thermal Enthalpies=            -303.635694
 Sum of electronic and thermal Free Energies=         -303.669538

                     E (Thermal)             CV                S
                      KCal/Mol        Cal/Mol-Kelvin    Cal/Mol-Kelvin
 Total                   72.095             17.626             71.231
 Electronic               0.000              0.000              0.000
 Translational            0.889              2.981             39.535
 Rotational               0.889              2.981             26.538
 Vibrational             70.318             11.665              5.158
 Vibration     1          0.709              1.627              1.288
 Vibration     2          0.742              1.534              1.080
 Vibration     3          0.870              1.217              0.622
 Vibration     4          0.902              1.147              0.551

 Optimization completed.
    -- Stationary point found.
 Normal termination of Gaussian 09 at Fri Oct  5 10:56:36 2018.
