 Gaussian 09, Revision E.01,
 Gaussian 09:  ES64L-G09RevE.01 30-Nov-2015

 ----------------
 # freq hf/6-31g*
 ----------------

 ---------
 ts-hf.log
 ---------
 Symbolic Z-matrix:
 Charge =  0 Multiplicity = 1

                         Standard orientation:
 ---------------------------------------------------------------------
 Center     Atomic      Atomic             Coordinates (Angstroms)
 Number     Number       Type             X           Y           Z
 ---------------------------------------------------------------------
      1          6           0        0.170797   -1.398744    0.697690
      2          6           0       -0.235587   -0.304038    1.437850
      3          6           0       -0.235587    0.978890    0.909580
      4          6           0       -0.235587    0.978890   -0.909580
      5          6           0       -0.235587   -0.304038   -1.437850
      6          6           0        0.170797   -1.398744   -0.697690
      7          1           0        0.286463   -2.344494    1.197440
      8          1           0       -0.660810   -0.450555    2.415450
      9          1           0       -0.660810   -0.450555   -2.415450
     10          1           0        0.286463   -2.344494   -1.197440
     11          8           0        0.725711    1.333485    0.000000
     12          1           0       -0.726230    1.804459   -1.392540
     13          1           0       -0.726230    1.804459    1.392540
 ---------------------------------------------------------------------

 SCF Done:  E(RHF) =  -305.462279575     A.U. after   15 cycles

 The electronic state is 1-A'.
 Alpha  occ. eigenvalues --  -20.59134 -11.30205 -11.30188 -11.23463 -11.23353
 Alpha  occ. eigenvalues --  -11.23105 -11.23101  -1.44913  -1.11352  -1.04617
 Alpha  occ. eigenvalues --   -0.94612  -0.87905  -0.79054  -0.73116  -0.71700
 Alpha  occ. eigenvalues --   -0.65112  -0.63278  -0.62852  -0.58316  -0.53352
 Alpha  occ. eigenvalues --   -0.51758  -0.47873  -0.45435  -0.32095  -0.31890
 Alpha virt. eigenvalues --    0.13326   0.14759   0.23630   0.27834   0.28742
 Alpha virt. eigenvalues --    0.30355   0.32736   0.33536   0.35910   0.36967
 Alpha virt. eigenvalues --    0.46059   0.49148   0.50398   0.51463   0.68022

 Mulliken charges:
               1
     1  C   -0.204111
     2  C   -0.177429
     3  C    0.039239
     4  C    0.039239
     5  C   -0.177429
     6  C   -0.204111
     7  H    0.196040
     8  H    0.206117
     9  H    0.206117
    10  H    0.196040
    11  O   -0.526473
    12  H    0.203381
    13  H    0.203381
 Sum of Mulliken charges =   0.00000

 Dipole moment (field-independent basis, Debye):
    X=             -1.8937    Y=             -0.4206    Z=              0.0000  Tot=              1.9398
 Quadrupole moment (field-independent basis, Debye-Ang):
   XX=            -44.6074   YY=            -37.5673   ZZ=            -35.9891
   XY=             -3.4341   XZ=              0.0000   YZ=              0.0000

  Exact polarizability:  29.677  -7.410  70.188   0.000   0.000  73.307
 Approx polarizability:  32.500  -6.935  69.376   0.000   0.000  74.466

 ******    1 imaginary frequencies (negative Signs) ******

                      1                      2                      3
                     A'                     A'                     A"
 Frequencies --   -777.2976               335.0153               377.6774
 Red. masses --      6.2192                 5.2633                 3.1534
 Frc consts  --      2.2139                 0.3480                 0.2650
 IR Inten    --      4.4249                 3.0926                 1.1247
 Raman Activ --     10.2093                 3.7547                 1.5260

                      4                      5                      6
                     A'                     A"                     A"
 Frequencies --    506.5829               533.2941               708.5450
 Red. masses --      3.5310                 6.1264                 3.4420
 Frc consts  --      0.5339                 1.0266                 1.0181
 IR Inten    --      6.7157                 2.1161                 5.9008
 Raman Activ --      7.4595                 6.1715                 1.9723

                      7                      8                      9
                     A'                     A'                     A"
 Frequencies --    785.3803               815.6022               893.9708
 Red. masses --      1.4682                 2.6010                 1.2683
 Frc consts  --      0.5336                 1.0194                 0.5972
 IR Inten    --     65.3459                27.5854                21.8244
 Raman Activ --      4.3735                 3.8999                 2.5826

                     10                     11                     12
                     A'                     A"                     A'
 Frequencies --    926.9124               974.6093              1044.0228
 Red. masses --      1.3539                 2.7431                 1.4252
 Frc consts  --      0.6854                 1.5352                 0.9153
 IR Inten    --     18.0512                 0.7483                 6.4138
 Raman Activ --      1.4633                 0.2194                 2.9380

                     13                     14                     15
                     A"                     A'                     A"
 Frequencies --   1057.5685              1062.5913              1070.0642
 Red. masses --      4.3051                 3.9138                 1.7653
 Frc consts  --      2.8369                 2.6036                 1.1909
 IR Inten    --      2.5511                11.2943                 0.2254
 Raman Activ --      1.0511                42.9300                 1.0203

                     16                     17                     18
                     A"                     A'                     A"
 Frequencies --   1104.5170              1159.5329              1214.9780
 Red. masses --      1.2801                 1.7533                 1.7854
 Frc consts  --      0.9201                 1.3889                 1.5528
 IR Inten    --      0.5081                10.5455                10.7153
 Raman Activ --      0.2556                 1.2093                 2.6143

                     19                     20                     21
                     A'                     A"                     A'
 Frequencies --   1301.5863              1324.3673              1364.1546
 Red. masses --      1.1602                 1.3503                 1.9167
 Frc consts  --      1.1581                 1.3954                 2.1015
 IR Inten    --      0.8211                 1.7611                29.5481
 Raman Activ --      4.2055                 2.8359                 4.2711

                     22                     23                     24
                     A"                     A'                     A'
 Frequencies --   1491.9530              1510.9464              1593.2513
 Red. masses --      1.2081                 2.7415                 1.8088
 Frc consts  --      1.5844                 3.6876                 2.7052
 IR Inten    --      1.6700                10.3521                 9.7286
 Raman Activ --      1.1812                 7.1156                 0.0979

                     25                     26                     27
                     A"                     A'                     A"
 Frequencies --   1613.4776              1722.2202              1771.3482
 Red. masses --      1.8711                 3.3387                 4.8914
 Frc consts  --      2.8700                 5.8345                 9.0426
 IR Inten    --      0.6016                12.4863                 0.0001
 Raman Activ --      2.0967                 9.3544                17.9498

                     28                     29                     30
                     A"                     A'                     A"
 Frequencies --   3346.0860              3354.7262              3362.8920
 Red. masses --      1.0850                 1.0878                 1.0908
 Frc consts  --      7.1571                 7.2129                 7.2682
 IR Inten    --      0.1314                 1.0003                10.8180
 Raman Activ --     25.2409               130.6857                94.9574

                     31                     32                     33
                     A'                     A"                     A'
 Frequencies --   3375.6110              3382.4827              3389.2709
 Red. masses --      1.0944                 1.0959                 1.0968
 Frc consts  --      7.3472                 7.3876                 7.4233
 IR Inten    --     51.6187                36.1343                12.3891
 Raman Activ --     63.8833                55.3337               317.9826

 - Thermochemistry -
 -------------------
 Temperature   298.150 Kelvin.  Pressure   1.00000 Atm.
 Atom     1 has atomic number  6 and mass  12.00000

 Molecular mass:    94.04186 amu.
 Principal axes and moments of inertia in atomic units:
                           1         2         3
     Eigenvalues --   405.32464 473.06039 779.91628
           X            0.02373   0.00000   0.99972
           Y            0.99972   0.00000  -0.02373
           Z            0.00000   1.00000   0.00000
 This molecule is an asymmetric top.
 Rotational symmetry number  1.
 Rotational temperatures (Kelvin)      0.21369     0.18309     0.11106
 Rotational constants (GHZ):           4.45258     3.81503     2.31402
    1 imaginary frequencies ignored.
 Zero-point vibrational energy     289946.3 (Joules/Mol)
                                   69.29883 (Kcal/Mol)
 Warning -- explicit consideration of   4 degrees of freedom as
           vibrations may cause significant error
 Vibrational temperatures:    482.01   543.39   728.86   767.29  1019.44
          (Kelvin)           1129.99  1173.47  1286.22  1333.62  1402.24
                             1502.11  1521.60  1528.83  1539.58  1589.15
                             1668.31  1748.08  1872.69  1905.47  1962.71
                             2146.58  2173.91  2292.33  2321.43  2477.89
                             2548.57  4814.27  4826.70  4838.45  4856.75
                             4866.63  4876.40

 Zero-point correction=                           0.110435 (Hartree/Particle)
 Thermal correction to Energy=                    0.115035
 Thermal correction to Enthalpy=                  0.115979
 Thermal correction to Gibbs Free Energy=         0.082153
 Sum of electronic and zero-point Energies=           -305.351845
 Sum of electronic and thermal Energies=              -305.347245
 Sum of electronic and thermal Enthalpies=            -305.346301
 Sum of electronic and thermal Free Energies=         -305.380127

                     E (Thermal)             CV                S
                      KCal/Mol        Cal/Mol-Kelvin    Cal/Mol-Kelvin
 Total                   72.185             17.681             71.193
 Electronic               0.000              0.000              0.000
 Translational            0.889              2.981             39.535
 Rotational               0.889              2.981             26.506
 Vibrational             70.408             11.720              5.153
 Vibration     1          0.716              1.606              1.236
 Vibration     2          0.748              1.518              1.048
 Vibration     3          0.862              1.235              0.642
 Vibration     4          0.888              1.176              0.580

 Optimization completed.
    -- Stationary point found.
 Normal termination of Gaussian 09 at Fri Oct  5 10:07:57 2018.
