 Gaussian 09, Revision E.01,
 Gaussian 09:  ES64L-G09RevE.01 30-Nov-2015

 -----------------
 # mp2/aug-cc-pvdz
 -----------------

 -----------
 ts-bp86.log
 -----------
 Symbolic Z-matrix:
 Charge =  0 Multiplicity = 1

                         Standard orientation:
 ---------------------------------------------------------------------
 Center     Atomic      Atomic             Coordinates (Angstroms)
 Number     Number       Type             X           Y           Z
 ---------------------------------------------------------------------
      1          6           0       -1.420899    0.705810    0.166319
      2          6           0       -0.306449    1.459660   -0.248611
      3          6           0        0.996221    0.938640   -0.225291
      4          6           0        0.996221   -0.938640   -0.225301
      5          6           0       -0.306449   -1.459660   -0.248611
      6          6           0       -1.420899   -0.705810    0.166319
      7          1           0       -2.389479    1.218800    0.287859
      8          1           0       -0.457669    2.454690   -0.700131
      9          1           0       -0.457669   -2.454690   -0.700141
     10          1           0       -2.389479   -1.218800    0.287859
     11          8           0        1.347351    0.000000    0.748989
     12          1           0        1.844501   -1.430740   -0.738151
     13          1           0        1.844501    1.430740   -0.738151
 ---------------------------------------------------------------------

 SCF Done:  E(RHF) =  -305.496838759     A.U. after   13 cycles
 E2 =    -0.1030888043D+01 EUMP2 =    -0.30652772680204D+03

 The electronic state is 1-A.
 Alpha  occ. eigenvalues --  -20.60737 -11.32177 -11.32163 -11.25439 -11.25335
 Alpha  occ. eigenvalues --  -11.25095 -11.25092  -1.43903  -1.11131  -1.04582
 Alpha  occ. eigenvalues --   -0.94859  -0.87752  -0.78748  -0.72360  -0.71744
 Alpha  occ. eigenvalues --   -0.64904  -0.63017  -0.62505  -0.58322  -0.53536
 Alpha  occ. eigenvalues --   -0.51873  -0.47890  -0.46226  -0.32499  -0.32333
 Alpha virt. eigenvalues --    0.03470   0.04125   0.04180   0.05646   0.05721
 Alpha virt. eigenvalues --    0.07454   0.09177   0.10224   0.11172   0.12214
 Alpha virt. eigenvalues --    0.12501   0.13591   0.14486   0.14829   0.15051

 Mulliken charges:
               1
     1  C    0.368367
     2  C    0.511616
     3  C    0.606308
     4  C    0.606306
     5  C    0.511603
     6  C    0.368362
     7  H   -0.367762
     8  H   -0.374460
     9  H   -0.374452
    10  H   -0.367763
    11  O   -0.949163
    12  H   -0.269490
    13  H   -0.269473
 Sum of Mulliken charges =   0.00000

 Dipole moment (field-independent basis, Debye):
    X=             -0.3200    Y=              0.0000    Z=             -1.7958  Tot=              1.8241
 Quadrupole moment (field-independent basis, Debye-Ang):
   XX=            -38.0786   YY=            -36.9845   ZZ=            -46.3293
   XY=              0.0000   XZ=             -3.4233   YZ=              0.0000

 Normal termination of Gaussian 09 at Fri Oct  5 17:25:52 2018.
