 Gaussian 09, Revision E.01,
 Gaussian 09:  ES64L-G09RevE.01 30-Nov-2015

 -------------------------------------
 # opt=(ts, calcfc, noeigen) b3lyp svp
 -------------------------------------

 -------------------
 Title Card Required
 -------------------
 Symbolic Z-matrix:
 Charge =  0 Multiplicity = 1

 SCF Done:  E(RB3LYP) =  -307.163672226     A.U. after   14 cycles

  Exact polarizability:   0.000   0.000   0.000   0.000   0.000   0.000
 Approx polarizability: 128.738  -0.002 139.498  11.881   0.001  56.189

 SCF Done:  E(RB3LYP) =  -307.163633733     A.U. after   12 cycles
 Optimization completed.
    -- Stationary point found.

                         Standard orientation:
 ---------------------------------------------------------------------
 Center     Atomic      Atomic             Coordinates (Angstroms)
 Number     Number       Type             X           Y           Z
 ---------------------------------------------------------------------
      1          6           0        1.413995   -0.703710    0.163130
      2          6           0        0.305997   -1.450662   -0.241522
      3          6           0       -0.990074   -0.919896   -0.230366
      4          6           0       -0.990058    0.919910   -0.230365
      5          6           0        0.306022    1.450659   -0.241520
      6          6           0        1.414007    0.703689    0.163131
      7          1           0        2.375894   -1.212166    0.277575
      8          1           0        0.451044   -2.445553   -0.673304
      9          1           0        0.451086    2.445544   -0.673313
     10          1           0        2.375916    1.212127    0.277572
     11          8           0       -1.344296    0.000011    0.746308
     12          1           0       -1.829446    1.412090   -0.736963
     13          1           0       -1.829470   -1.412070   -0.736955
 ---------------------------------------------------------------------

 The electronic state is 1-A.
 Alpha  occ. eigenvalues --  -19.15877 -10.25683 -10.25681 -10.19645 -10.19613
 Alpha  occ. eigenvalues --  -10.19379 -10.19374  -1.08446  -0.81710  -0.76549
 Alpha  occ. eigenvalues --   -0.68758  -0.64191  -0.57014  -0.53378  -0.52463
 Alpha  occ. eigenvalues --   -0.47305  -0.46095  -0.45200  -0.42313  -0.38374
 Alpha  occ. eigenvalues --   -0.36873  -0.34459  -0.28780  -0.24620  -0.24386
 Alpha virt. eigenvalues --   -0.02355  -0.01128   0.05659   0.08661   0.09374
 Alpha virt. eigenvalues --    0.10116   0.13029   0.14111   0.15585   0.16939
 Alpha virt. eigenvalues --    0.24410   0.29402   0.29929   0.30788   0.37551

 Mulliken charges:
               1
     1  C    0.000878
     2  C    0.024335
     3  C    0.103310
     4  C    0.103311
     5  C    0.024335
     6  C    0.000878
     7  H   -0.006090
     8  H   -0.002881
     9  H   -0.002881
    10  H   -0.006090
    11  O   -0.274089
    12  H    0.017492
    13  H    0.017492
 Sum of Mulliken charges =   0.00000

 Dipole moment (field-independent basis, Debye):
    X=              0.3569    Y=              0.0000    Z=             -1.6159  Tot=              1.6548
 Quadrupole moment (field-independent basis, Debye-Ang):
   XX=            -38.1198   YY=            -36.6993   ZZ=            -44.1656
   XY=              0.0000   XZ=              2.8424   YZ=              0.0000

 Normal termination of Gaussian 09 at Tue Oct  2 16:36:55 2018.
