 Gaussian 09, Revision E.01,
 Gaussian 09:  ES64L-G09RevE.01 30-Nov-2015

 ---------------
 # b3lyp/svp opt
 ---------------

 -------------------
 Title Card Required
 -------------------
 Symbolic Z-matrix:
 Charge =  0 Multiplicity = 1

 SCF Done:  E(RB3LYP) =  -307.141526534     A.U. after   14 cycles
 SCF Done:  E(RB3LYP) =  -307.163506791     A.U. after   13 cycles
 SCF Done:  E(RB3LYP) =  -307.170722486     A.U. after   13 cycles
 SCF Done:  E(RB3LYP) =  -307.172504206     A.U. after   13 cycles
 SCF Done:  E(RB3LYP) =  -307.172745779     A.U. after   12 cycles
 SCF Done:  E(RB3LYP) =  -307.172762370     A.U. after    9 cycles
 SCF Done:  E(RB3LYP) =  -307.172764906     A.U. after    8 cycles
 SCF Done:  E(RB3LYP) =  -307.172765192     A.U. after    8 cycles
 Optimization completed.
    -- Stationary point found.

                         Standard orientation:
 ---------------------------------------------------------------------
 Center     Atomic      Atomic             Coordinates (Angstroms)
 Number     Number       Type             X           Y           Z
 ---------------------------------------------------------------------
      1          6           0        1.440253   -0.725665    0.123329
      2          6           0        0.324372   -1.434970   -0.181682
      3          6           0       -0.975775   -0.760504   -0.315466
      4          6           0       -0.975259    0.760792   -0.315444
      5          6           0        0.325030    1.434889   -0.181867
      6          6           0        1.440552    0.725173    0.123481
      7          1           0        2.393414   -1.242859    0.264599
      8          1           0        0.375323   -2.512558   -0.358925
      9          1           0        0.376131    2.512463   -0.359037
     10          1           0        2.393943    1.241876    0.264979
     11          8           0       -1.432860    0.000295    0.796662
     12          1           0       -1.775246    1.290785   -0.849442
     13          1           0       -1.775735   -1.290353   -0.849582
 ---------------------------------------------------------------------

 The electronic state is 1-A.
 Alpha  occ. eigenvalues --  -19.14495 -10.24873 -10.24861 -10.19922 -10.19906
 Alpha  occ. eigenvalues --  -10.19652 -10.19648  -1.07371  -0.82129  -0.75231
 Alpha  occ. eigenvalues --   -0.68660  -0.62804  -0.59163  -0.53896  -0.49184
 Alpha  occ. eigenvalues --   -0.47901  -0.45825  -0.43897  -0.40694  -0.37656
 Alpha  occ. eigenvalues --   -0.36378  -0.35933  -0.28589  -0.27387  -0.23871
 Alpha virt. eigenvalues --   -0.04967   0.03514   0.05288   0.09103   0.09218
 Alpha virt. eigenvalues --    0.12455   0.12765   0.15170   0.16551   0.17427
 Alpha virt. eigenvalues --    0.25616   0.25936   0.27406   0.30699   0.37183

 Mulliken charges:
               1
     1  C    0.005793
     2  C    0.029828
     3  C    0.125804
     4  C    0.125794
     5  C    0.029885
     6  C    0.005852
     7  H   -0.008619
     8  H   -0.010403
     9  H   -0.010385
    10  H   -0.008614
    11  O   -0.306294
    12  H    0.010677
    13  H    0.010681
 Sum of Mulliken charges =   0.00000

 Dipole moment (field-independent basis, Debye):
    X=              0.8292    Y=             -0.0003    Z=             -1.6614  Tot=              1.8568
 Quadrupole moment (field-independent basis, Debye-Ang):
   XX=            -38.9325   YY=            -36.2569   ZZ=            -44.0670
   XY=              0.0012   XZ=              3.6566   YZ=              0.0000

 Normal termination of Gaussian 09 at Thu Oct  4 09:17:48 2018.
