 Gaussian 09, Revision E.01,
 Gaussian 09:  ES64L-G09RevE.01 30-Nov-2015

 ----------------------------
 # b3lyp/svp opt=modredundant
 ----------------------------

 -------------------
 Title Card Required
 -------------------
 Symbolic Z-matrix:
 Charge =  0 Multiplicity = 1

 SCF Done:  E(RB3LYP) =  -307.141526534     A.U. after   14 cycles
 SCF Done:  E(RB3LYP) =  -307.162112283     A.U. after   13 cycles
 SCF Done:  E(RB3LYP) =  -307.167527917     A.U. after   13 cycles
 SCF Done:  E(RB3LYP) =  -307.168474850     A.U. after   12 cycles
 SCF Done:  E(RB3LYP) =  -307.168539065     A.U. after   11 cycles
 SCF Done:  E(RB3LYP) =  -307.168543019     A.U. after    8 cycles
 SCF Done:  E(RB3LYP) =  -307.168543668     A.U. after    7 cycles
 Optimization completed.
    -- Stationary point found.
 SCF Done:  E(RB3LYP) =  -307.171797787     A.U. after   13 cycles
 SCF Done:  E(RB3LYP) =  -307.172707267     A.U. after   12 cycles
 SCF Done:  E(RB3LYP) =  -307.172755161     A.U. after   11 cycles
 Optimization completed.
 SCF Done:  E(RB3LYP) =  -307.175813742     A.U. after   13 cycles
 SCF Done:  E(RB3LYP) =  -307.175854790     A.U. after   11 cycles
 SCF Done:  E(RB3LYP) =  -307.175857842     A.U. after    9 cycles
 SCF Done:  E(RB3LYP) =  -307.175858012     A.U. after    8 cycles
    -- Stationary point found.
 SCF Done:  E(RB3LYP) =  -307.173493645     A.U. after   13 cycles
 SCF Done:  E(RB3LYP) =  -307.174469471     A.U. after   13 cycles
 SCF Done:  E(RB3LYP) =  -307.174578326     A.U. after   12 cycles
 SCF Done:  E(RB3LYP) =  -307.174585702     A.U. after    9 cycles
 SCF Done:  E(RB3LYP) =  -307.174575364     A.U. after    8 cycles
 SCF Done:  E(RB3LYP) =  -307.174572825     A.U. after    8 cycles
 Optimization completed.
    -- Stationary point found.

                         Standard orientation:
 ---------------------------------------------------------------------
 Center     Atomic      Atomic             Coordinates (Angstroms)
 Number     Number       Type             X           Y           Z
 ---------------------------------------------------------------------
      1          6           0        0.701884    1.449465    0.115250
      2          6           0        1.542992    0.287896   -0.192417
      3          6           0        1.194694   -1.002954   -0.086637
      4          6           0       -1.230174   -0.959309   -0.086505
      5          6           0       -1.531514    0.343204   -0.192564
      6          6           0       -0.649145    1.473726    0.115219
      7          1           0        1.233073    2.383266    0.325906
      8          1           0        2.564765    0.482393   -0.532543
      9          1           0       -2.545594    0.574354   -0.532790
     10          1           0       -1.146571    2.425922    0.325999
     11          8           0       -0.026700   -1.480406    0.381394
     12          1           0       -1.940947   -1.753104   -0.335677
     13          1           0        1.876459   -1.821747   -0.336123
 ---------------------------------------------------------------------

 The electronic state is 1-A.
 Alpha  occ. eigenvalues --  -19.16295 -10.25138 -10.25137 -10.19790 -10.19729
 Alpha  occ. eigenvalues --  -10.19275 -10.19269  -1.05148  -0.80812  -0.78398
 Alpha  occ. eigenvalues --   -0.69786  -0.66394  -0.56101  -0.54394  -0.51939
 Alpha  occ. eigenvalues --   -0.46418  -0.45324  -0.43046  -0.42503  -0.39542
 Alpha  occ. eigenvalues --   -0.35744  -0.32242  -0.31334  -0.28915  -0.20089
 Alpha virt. eigenvalues --   -0.05832   0.03607   0.05844   0.07858   0.09643
 Alpha virt. eigenvalues --    0.10142   0.12602   0.13412   0.14066   0.15245
 Alpha virt. eigenvalues --    0.24432   0.27678   0.32099   0.34807   0.38070

 Mulliken charges:
               1
     1  C    0.013022
     2  C   -0.012376
     3  C    0.144285
     4  C    0.144313
     5  C   -0.012396
     6  C    0.012993
     7  H   -0.005207
     8  H    0.001285
     9  H    0.001286
    10  H   -0.005196
    11  O   -0.315330
    12  H    0.016654
    13  H    0.016668
 Sum of Mulliken charges =   0.00000

 Dipole moment (field-independent basis, Debye):
    X=              0.0088    Y=              0.5029    Z=             -0.8198  Tot=              0.9618
 Quadrupole moment (field-independent basis, Debye-Ang):
   XX=            -35.3992   YY=            -38.8954   ZZ=            -44.1166
   XY=             -0.0622   XZ=              0.0325   YZ=              1.8305

 Normal termination of Gaussian 09 at Tue Oct  2 16:30:00 2018.
