 Gaussian 09, Revision E.01,
 Gaussian 09:  ES64L-G09RevE.01 30-Nov-2015

 ----------------
 # freq b3lyp/svp
 ----------------

 ----------
 benzox.log
 ----------
 Symbolic Z-matrix:
 Charge =  0 Multiplicity = 1

                         Standard orientation:
 ---------------------------------------------------------------------
 Center     Atomic      Atomic             Coordinates (Angstroms)
 Number     Number       Type             X           Y           Z
 ---------------------------------------------------------------------
      1          6           0       -1.440258    0.725657    0.123330
      2          6           0       -0.324384    1.434967   -0.181680
      3          6           0        0.975762    0.760509   -0.315470
      4          6           0        0.975266   -0.760781   -0.315440
      5          6           0       -0.325018   -1.434893   -0.181870
      6          6           0       -1.440544   -0.725183    0.123480
      7          1           0       -2.393422    1.242839    0.264600
      8          1           0       -0.375344    2.512557   -0.358920
      9          1           0       -0.376108   -2.512463   -0.359040
     10          1           0       -2.393930   -1.241901    0.264980
     11          8           0        1.432859   -0.000287    0.796660
     12          1           0        1.775261   -1.290774   -0.849440
     13          1           0        1.775727    1.290366   -0.849580
 ---------------------------------------------------------------------

 SCF Done:  E(RB3LYP) =  -307.172765193     A.U. after   14 cycles

 The electronic state is 1-A.
 Alpha  occ. eigenvalues --  -19.14495 -10.24873 -10.24861 -10.19922 -10.19906
 Alpha  occ. eigenvalues --  -10.19652 -10.19648  -1.07371  -0.82129  -0.75231
 Alpha  occ. eigenvalues --   -0.68660  -0.62804  -0.59163  -0.53896  -0.49184
 Alpha  occ. eigenvalues --   -0.47901  -0.45825  -0.43897  -0.40694  -0.37656
 Alpha  occ. eigenvalues --   -0.36378  -0.35933  -0.28589  -0.27387  -0.23871
 Alpha virt. eigenvalues --   -0.04967   0.03514   0.05288   0.09103   0.09217
 Alpha virt. eigenvalues --    0.12455   0.12765   0.15170   0.16551   0.17427
 Alpha virt. eigenvalues --    0.25616   0.25936   0.27406   0.30699   0.37183

 Mulliken charges:
               1
     1  C    0.005796
     2  C    0.029831
     3  C    0.125799
     4  C    0.125794
     5  C    0.029884
     6  C    0.005850
     7  H   -0.008620
     8  H   -0.010403
     9  H   -0.010387
    10  H   -0.008613
    11  O   -0.306292
    12  H    0.010677
    13  H    0.010684
 Sum of Mulliken charges =   0.00000

 Dipole moment (field-independent basis, Debye):
    X=             -0.8292    Y=              0.0003    Z=             -1.6614  Tot=              1.8568
 Quadrupole moment (field-independent basis, Debye-Ang):
   XX=            -38.9325   YY=            -36.2569   ZZ=            -44.0670
   XY=              0.0012   XZ=             -3.6566   YZ=              0.0000

  Exact polarizability:  71.242   0.002  74.627  -6.753   0.002  35.458
 Approx polarizability: 112.749   0.006 121.277  -8.528   0.005  57.227

                      1                      2                      3
                      A                      A                      A
 Frequencies --    256.0151               319.5679               464.4108
 Red. masses --      4.4165                 2.9293                 2.6103
 Frc consts  --      0.1706                 0.1763                 0.3317
 IR Inten    --      5.6384                 0.0759                 8.6489

                      4                      5                      6
                      A                      A                      A
 Frequencies --    545.0793               618.6973               629.3868
 Red. masses --      6.6507                 2.9309                 3.5245
 Frc consts  --      1.1642                 0.6610                 0.8226
 IR Inten    --      0.5017                 4.1199                 1.1863

                      7                      8                      9
                      A                      A                      A
 Frequencies --    705.2892               780.1901               784.1877
 Red. masses --      3.6377                 1.9811                 1.7200
 Frc consts  --      1.0661                 0.7105                 0.6232
 IR Inten    --     20.5361                64.5253                 0.5062

                     10                     11                     12
                      A                      A                      A
 Frequencies --    860.4588               946.0188               971.7829
 Red. masses --      3.0279                 2.9616                 6.2547
 Frc consts  --      1.3209                 1.5616                 3.4801
 IR Inten    --      0.0301                16.2723                 7.0644

                     13                     14                     15
                      A                      A                      A
 Frequencies --    982.3419               987.8973              1007.0468
 Red. masses --      1.5979                 1.9083                 1.3034
 Frc consts  --      0.9085                 1.0973                 0.7788
 IR Inten    --      3.2757                 6.9067                 0.1382

                     16                     17                     18
                      A                      A                      A
 Frequencies --   1017.7045              1051.5754              1129.2359
 Red. masses --      1.9802                 1.3111                 1.3541
 Frc consts  --      1.2084                 0.8542                 1.0174
 IR Inten    --     18.9545                 8.0610                 0.1914

                     19                     20                     21
                      A                      A                      A
 Frequencies --   1178.6959              1191.3657              1257.7103
 Red. masses --      1.1173                 1.1238                 1.6368
 Frc consts  --      0.9146                 0.9398                 1.5255
 IR Inten    --      4.9464                 0.9204                10.9950

                     22                     23                     24
                      A                      A                      A
 Frequencies --   1350.1705              1387.9543              1419.4076
 Red. masses --      1.2055                 2.0541                 1.7071
 Frc consts  --      1.2947                 2.3314                 2.0264
 IR Inten    --      0.4118                 4.4562                 2.5654

                     25                     26                     27
                      A                      A                      A
 Frequencies --   1461.7966              1614.1532              1693.5078
 Red. masses --      2.1540                 6.2942                 5.5467
 Frc consts  --      2.7119                 9.6623                 9.3727
 IR Inten    --      8.3403                 1.2946                 0.2011

                     28                     29                     30
                      A                      A                      A
 Frequencies --   3114.9975              3122.7447              3168.9283
 Red. masses --      1.0883                 1.0914                 1.0857
 Frc consts  --      6.2217                 6.2708                 6.4239
 IR Inten    --     14.0528                50.1479                 0.2691

                     31                     32                     33
                      A                      A                      A
 Frequencies --   3177.2780              3189.1430              3195.8179
 Red. masses --      1.0882                 1.0971                 1.0999
 Frc consts  --      6.4723                 6.5739                 6.6187
 IR Inten    --      7.3945                20.6902                 7.5846

 - Thermochemistry -
 -------------------
 Temperature   298.150 Kelvin.  Pressure   1.00000 Atm.
 Atom     1 has atomic number  6 and mass  12.00000

 Molecular mass:    94.04186 amu.
 Principal axes and moments of inertia in atomic units:
                           1         2         3
     Eigenvalues --   394.60795 505.89804 790.68290
           X            0.99937   0.00000  -0.03553
           Y            0.00000   1.00000   0.00000
           Z            0.03553   0.00000   0.99937
 This molecule is an asymmetric top.
 Rotational symmetry number  1.
 Rotational temperatures (Kelvin)      0.21949     0.17121     0.10954
 Rotational constants (GHZ):           4.57350     3.56740     2.28251
 Zero-point vibrational energy     272632.3 (Joules/Mol)
                                   65.16068 (Kcal/Mol)
 Warning -- explicit consideration of   5 degrees of freedom as
           vibrations may cause significant error
 Vibrational temperatures:    368.35   459.79   668.18   784.25   890.17
          (Kelvin)            905.55  1014.75  1122.52  1128.27  1238.01
                             1361.11  1398.18  1413.37  1421.36  1448.91
                             1464.25  1512.98  1624.72  1695.88  1714.11
                             1809.56  1942.59  1996.95  2042.21  2103.20
                             2322.40  2436.58  4481.78  4492.93  4559.38
                             4571.39  4588.46  4598.06

 Zero-point correction=                           0.103840 (Hartree/Particle)
 Thermal correction to Energy=                    0.108997
 Thermal correction to Enthalpy=                  0.109942
 Thermal correction to Gibbs Free Energy=         0.075226
 Sum of electronic and zero-point Energies=           -307.068925
 Sum of electronic and thermal Energies=              -307.063768
 Sum of electronic and thermal Enthalpies=            -307.062824
 Sum of electronic and thermal Free Energies=         -307.097539

                     E (Thermal)             CV                S
                      KCal/Mol        Cal/Mol-Kelvin    Cal/Mol-Kelvin
 Total                   68.397             20.582             73.065
 Electronic               0.000              0.000              0.000
 Translational            0.889              2.981             39.535
 Rotational               0.889              2.981             26.559
 Vibrational             66.619             14.620              6.971
 Vibration     1          0.666              1.753              1.689
 Vibration     2          0.705              1.636              1.312
 Vibration     3          0.822              1.329              0.753
 Vibration     4          0.900              1.150              0.554
 Vibration     5          0.979              0.992              0.419

 Optimization completed.
    -- Stationary point found.
 Normal termination of Gaussian 09 at Fri Oct  5 09:48:36 2018.
