 Gaussian 09, Revision E.01,
 Gaussian 09:  ES64L-G09RevE.01 30-Nov-2015

 ---------------
 # opt hf/6-31g*
 ---------------

 ----------
 benzox.log
 ----------
 Symbolic Z-matrix:
 Charge =  0 Multiplicity = 1

 SCF Done:  E(RHF) =  -305.480462056     A.U. after   13 cycles
 SCF Done:  E(RHF) =  -305.484758648     A.U. after   11 cycles
 SCF Done:  E(RHF) =  -305.485141561     A.U. after   11 cycles
 SCF Done:  E(RHF) =  -305.485225324     A.U. after   10 cycles
 SCF Done:  E(RHF) =  -305.485227329     A.U. after    9 cycles
 Optimization completed.
    -- Stationary point found.

                         Standard orientation:
 ---------------------------------------------------------------------
 Center     Atomic      Atomic             Coordinates (Angstroms)
 Number     Number       Type             X           Y           Z
 ---------------------------------------------------------------------
      1          6           0       -1.434778    0.732156    0.104537
      2          6           0       -0.331312    1.427269   -0.152491
      3          6           0        0.967542    0.738357   -0.323724
      4          6           0        0.967546   -0.738352   -0.323729
      5          6           0       -0.331306   -1.427269   -0.152488
      6          6           0       -1.434775   -0.732160    0.104539
      7          1           0       -2.372978    1.237378    0.251048
      8          1           0       -0.360137    2.497468   -0.255079
      9          1           0       -0.360135   -2.497467   -0.255086
     10          1           0       -2.372972   -1.237388    0.251042
     11          8           0        1.446215   -0.000001    0.772493
     12          1           0        1.739498   -1.267877   -0.855874
     13          1           0        1.739500    1.267886   -0.855857
 ---------------------------------------------------------------------

 The electronic state is 1-A.
 Alpha  occ. eigenvalues --  -20.57099 -11.28841 -11.28766 -11.23936 -11.23861
 Alpha  occ. eigenvalues --  -11.23483 -11.23481  -1.42996  -1.11746  -1.02908
 Alpha  occ. eigenvalues --   -0.94433  -0.86201  -0.81785  -0.73226  -0.68077
 Alpha  occ. eigenvalues --   -0.65411  -0.63776  -0.60290  -0.55645  -0.52590
 Alpha  occ. eigenvalues --   -0.50818  -0.48996  -0.43641  -0.39585  -0.32348
 Alpha virt. eigenvalues --    0.11095   0.21955   0.23131   0.28504   0.28633
 Alpha virt. eigenvalues --    0.31888   0.32019   0.33495   0.37880   0.38080
 Alpha virt. eigenvalues --    0.44547   0.45613   0.48314   0.50053   0.64349

 Mulliken charges:
               1
     1  C   -0.196376
     2  C   -0.176630
     3  C    0.044489
     4  C    0.044486
     5  C   -0.176628
     6  C   -0.196376
     7  H    0.203158
     8  H    0.205762
     9  H    0.205762
    10  H    0.203158
    11  O   -0.546871
    12  H    0.193033
    13  H    0.193033
 Sum of Mulliken charges =   0.00000

 Dipole moment (field-independent basis, Debye):
    X=             -1.1582    Y=              0.0000    Z=             -1.9647  Tot=              2.2807
 Quadrupole moment (field-independent basis, Debye-Ang):
   XX=            -38.7936   YY=            -35.3246   ZZ=            -44.4824
   XY=              0.0000   XZ=             -4.4267   YZ=              0.0000

 Normal termination of Gaussian 09 at Fri Oct  5 10:06:06 2018.
