 Gaussian 09, Revision E.01,
 Gaussian 09:  ES64L-G09RevE.01 30-Nov-2015

 ----------------
 # freq hf/6-31g*
 ----------------

 -------------
 oxepin-hf.log
 -------------
 Symbolic Z-matrix:
 Charge =  0 Multiplicity = 1

                         Standard orientation:
 ---------------------------------------------------------------------
 Center     Atomic      Atomic             Coordinates (Angstroms)
 Number     Number       Type             X           Y           Z
 ---------------------------------------------------------------------
      1          6           0        0.290664   -1.414777    0.665020
      2          6           0       -0.208603   -0.317623    1.501420
      3          6           0       -0.208603    0.957301    1.159010
      4          6           0       -0.208603    0.957301   -1.159010
      5          6           0       -0.208603   -0.317623   -1.501420
      6          6           0        0.290664   -1.414777   -0.665020
      7          1           0        0.639881   -2.291355    1.183390
      8          1           0       -0.615233   -0.567892    2.465620
      9          1           0       -0.615233   -0.567892   -2.465620
     10          1           0        0.639881   -2.291355   -1.183390
     11          8           0        0.333972    1.444990    0.000000
     12          1           0       -0.601280    1.729876   -1.793830
     13          1           0       -0.601280    1.729876    1.793830
 ---------------------------------------------------------------------

 SCF Done:  E(RHF) =  -305.489812665     A.U. after   13 cycles

 The electronic state is 1-A'.
 Alpha  occ. eigenvalues --  -20.58812 -11.29099 -11.29099 -11.23569 -11.23402
 Alpha  occ. eigenvalues --  -11.22802 -11.22802  -1.41925  -1.10237  -1.06635
 Alpha  occ. eigenvalues --   -0.96231  -0.88814  -0.75397  -0.75050  -0.71512
 Alpha  occ. eigenvalues --   -0.63762  -0.63133  -0.61462  -0.59199  -0.54905
 Alpha  occ. eigenvalues --   -0.49774  -0.47751  -0.43310  -0.37727  -0.29763
 Alpha virt. eigenvalues --    0.11531   0.20165   0.24430   0.26868   0.29390
 Alpha virt. eigenvalues --    0.29697   0.32615   0.33455   0.33642   0.34024
 Alpha virt. eigenvalues --    0.46585   0.49255   0.52243   0.56893   0.64402

 Mulliken charges:
               1
     1  C   -0.183976
     2  C   -0.242094
     3  C    0.143724
     4  C    0.143724
     5  C   -0.242094
     6  C   -0.183976
     7  H    0.194748
     8  H    0.201014
     9  H    0.201014
    10  H    0.194748
    11  O   -0.618294
    12  H    0.195730
    13  H    0.195730
 Sum of Mulliken charges =   0.00000

 Dipole moment (field-independent basis, Debye):
    X=             -1.1642    Y=             -0.6840    Z=              0.0000  Tot=              1.3503
 Quadrupole moment (field-independent basis, Debye-Ang):
   XX=            -43.6994   YY=            -38.6675   ZZ=            -35.1908
   XY=             -3.2136   XZ=              0.0000   YZ=              0.0000

  Exact polarizability:  28.190  -7.126  71.146   0.000   0.000  68.919
 Approx polarizability:  29.933  -4.304  66.413   0.000   0.000  59.861

                      1                      2                      3
                     A'                     A"                     A'
 Frequencies --    189.1265               301.8865               400.7379
 Red. masses --      3.9823                 2.8515                 5.2981
 Frc consts  --      0.0839                 0.1531                 0.5013
 IR Inten    --      5.8597                 2.3602                 4.3457
 Raman Activ --      2.8646                 2.9207                 3.2426

                      4                      5                      6
                     A'                     A"                     A"
 Frequencies --    461.9890               486.1411               689.9210
 Red. masses --      2.1133                 5.2809                 3.2637
 Frc consts  --      0.2658                 0.7353                 0.9153
 IR Inten    --     31.2112                 1.5587                 0.0059
 Raman Activ --      5.7278                 5.5076                 1.7550

                      7                      8                      9
                     A'                     A'                     A"
 Frequencies --    840.5608               853.7395               865.3982
 Red. masses --      1.5964                 2.1148                 1.4256
 Frc consts  --      0.6645                 0.9082                 0.6290
 IR Inten    --     82.3181                 1.3263                24.9256
 Raman Activ --      3.8037                 5.5334                 7.7633

                     10                     11                     12
                     A'                     A'                     A"
 Frequencies --    921.2742               989.6408               998.8941
 Red. masses --      3.0513                 3.0408                 4.5452
 Frc consts  --      1.5258                 1.7546                 2.6720
 IR Inten    --      6.0478                11.3812                 3.2687
 Raman Activ --      7.1819                21.5370                 2.1334

                     13                     14                     15
                     A"                     A'                     A"
 Frequencies --   1046.9179              1057.2105              1081.9579
 Red. masses --      2.3662                 2.3534                 1.4235
 Frc consts  --      1.5280                 1.5498                 0.9818
 IR Inten    --      2.4576                15.1318                 2.2130
 Raman Activ --      4.6956                 1.8598                 2.5290

                     16                     17                     18
                     A'                     A"                     A"
 Frequencies --   1089.8915              1121.8420              1210.0261
 Red. masses --      1.4974                 1.2994                 2.1865
 Frc consts  --      1.0480                 0.9635                 1.8862
 IR Inten    --      1.4308                 1.5048                78.0030
 Raman Activ --      3.3805                 5.1437                 0.0397

                     19                     20                     21
                     A'                     A'                     A"
 Frequencies --   1338.0311              1353.4764              1409.7299
 Red. masses --      1.0939                 1.1265                 1.5779
 Frc consts  --      1.1539                 1.2159                 1.8476
 IR Inten    --      0.5115                 5.9484                61.9711
 Raman Activ --     20.3596                19.1145                 3.9268

                     22                     23                     24
                     A"                     A'                     A"
 Frequencies --   1498.6607              1567.7767              1591.3105
 Red. masses --      1.1797                 1.4373                 1.6286
 Frc consts  --      1.5611                 2.0815                 2.4298
 IR Inten    --      0.2361                 1.8854                 3.2664
 Raman Activ --      0.9230                 1.6165                10.6711

                     25                     26                     27
                     A'                     A"                     A'
 Frequencies --   1836.4555              1857.7418              1889.8956
 Red. masses --      7.7772                 6.3621                 5.3767
 Frc consts  --     15.4538                12.9367                11.3146
 IR Inten    --     10.4299                21.0241                34.0426
 Raman Activ --    111.3700                18.9731                26.0518

                     28                     29                     30
                     A"                     A'                     A"
 Frequencies --   3339.1808              3354.5280              3360.2502
 Red. masses --      1.0850                 1.0899                 1.0872
 Frc consts  --      7.1277                 7.2259                 7.2330
 IR Inten    --      0.7384                10.2499                12.6811
 Raman Activ --     47.0325               113.1036                84.9920

                     31                     32                     33
                     A'                     A"                     A'
 Frequencies --   3369.4628              3394.8279              3400.0501
 Red. masses --      1.0946                 1.0984                 1.0998
 Frc consts  --      7.3216                 7.4585                 7.4912
 IR Inten    --     38.7633                51.3235                17.1609
 Raman Activ --    131.7351                71.1239               251.3505

 - Thermochemistry -
 -------------------
 Temperature   298.150 Kelvin.  Pressure   1.00000 Atm.
 Atom     1 has atomic number  6 and mass  12.00000

 Molecular mass:    94.04186 amu.
 Principal axes and moments of inertia in atomic units:
                           1         2         3
     Eigenvalues --   449.60978 468.75977 865.62152
           X           -0.08380   0.00000   0.99648
           Y            0.99648   0.00000   0.08380
           Z            0.00000   1.00000   0.00000
 This molecule is an asymmetric top.
 Rotational symmetry number  1.
 Warning -- assumption of classical behavior for rotation
           may cause significant error
 Rotational temperatures (Kelvin)      0.19264     0.18477     0.10006
 Rotational constants (GHZ):           4.01402     3.85003     2.08491
 Zero-point vibrational energy     294093.1 (Joules/Mol)
                                   70.28995 (Kcal/Mol)
 Warning -- explicit consideration of   5 degrees of freedom as
           vibrations may cause significant error
 Vibrational temperatures:    272.11   434.35   576.57   664.70   699.45
          (Kelvin)            992.64  1209.38  1228.34  1245.11  1325.51
                             1423.87  1437.18  1506.28  1521.09  1556.69
                             1568.11  1614.08  1740.96  1925.13  1947.35
                             2028.28  2156.24  2255.68  2289.54  2642.25
                             2672.87  2719.13  4804.33  4826.41  4834.64
                             4847.90  4884.39  4891.91

 Zero-point correction=                           0.112014 (Hartree/Particle)
 Thermal correction to Energy=                    0.117267
 Thermal correction to Enthalpy=                  0.118212
 Thermal correction to Gibbs Free Energy=         0.083092
 Sum of electronic and zero-point Energies=           -305.377799
 Sum of electronic and thermal Energies=              -305.372545
 Sum of electronic and thermal Enthalpies=            -305.371601
 Sum of electronic and thermal Free Energies=         -305.406721

                     E (Thermal)             CV                S
                      KCal/Mol        Cal/Mol-Kelvin    Cal/Mol-Kelvin
 Total                   73.586             19.657             73.916
 Electronic               0.000              0.000              0.000
 Translational            0.889              2.981             39.535
 Rotational               0.889              2.981             26.703
 Vibrational             71.809             13.696              7.678
 Vibration     1          0.633              1.855              2.236
 Vibration     2          0.694              1.670              1.406
 Vibration     3          0.767              1.469              0.960
 Vibration     4          0.820              1.334              0.760
 Vibration     5          0.842              1.281              0.694

 Optimization completed.
    -- Stationary point found.
 Normal termination of Gaussian 09 at Fri Oct  5 10:07:50 2018.
