 Gaussian 09, Revision E.01,
 Gaussian 09:  ES64L-G09RevE.01 30-Nov-2015

 ---------------
 # opt b3lyp/svp
 ---------------

 ---------------------
 benzox2oxepinscan.log
 ---------------------
 Symbolic Z-matrix:
 Charge =  0 Multiplicity = 1

 SCF Done:  E(RB3LYP) =  -307.174573104     A.U. after   14 cycles
 SCF Done:  E(RB3LYP) =  -307.175330779     A.U. after   12 cycles
 SCF Done:  E(RB3LYP) =  -307.175502457     A.U. after   11 cycles
 SCF Done:  E(RB3LYP) =  -307.175649137     A.U. after   12 cycles
 SCF Done:  E(RB3LYP) =  -307.175785234     A.U. after   12 cycles
 SCF Done:  E(RB3LYP) =  -307.175855781     A.U. after   11 cycles
 SCF Done:  E(RB3LYP) =  -307.175858911     A.U. after    9 cycles
 SCF Done:  E(RB3LYP) =  -307.175858979     A.U. after    8 cycles
 SCF Done:  E(RB3LYP) =  -307.175859045     A.U. after    7 cycles
 Optimization completed.
    -- Stationary point found.

                         Standard orientation:
 ---------------------------------------------------------------------
 Center     Atomic      Atomic             Coordinates (Angstroms)
 Number     Number       Type             X           Y           Z
 ---------------------------------------------------------------------
      1          6           0        1.445739   -0.677955    0.141387
      2          6           0        0.306649   -1.509912   -0.232429
      3          6           0       -0.986056   -1.161168   -0.115280
      4          6           0       -0.986035    1.161185   -0.115280
      5          6           0        0.306676    1.509907   -0.232429
      6          6           0        1.445752    0.677929    0.141388
      7          1           0        2.383257   -1.198058    0.363051
      8          1           0        0.511833   -2.497077   -0.658564
      9          1           0        0.511878    2.497068   -0.658564
     10          1           0        2.383279    1.198015    0.363052
     11          8           0       -1.422439    0.000013    0.496343
     12          1           0       -1.803527    1.808824   -0.451934
     13          1           0       -1.803560   -1.808792   -0.451931
 ---------------------------------------------------------------------

 The electronic state is 1-A.
 Alpha  occ. eigenvalues --  -19.16090 -10.24888 -10.24883 -10.19852 -10.19794
 Alpha  occ. eigenvalues --  -10.19315 -10.19309  -1.05952  -0.81026  -0.78178
 Alpha  occ. eigenvalues --   -0.69628  -0.65970  -0.55787  -0.54661  -0.52091
 Alpha  occ. eigenvalues --   -0.46515  -0.45639  -0.43727  -0.42729  -0.39591
 Alpha  occ. eigenvalues --   -0.36021  -0.32167  -0.30540  -0.28027  -0.21057
 Alpha virt. eigenvalues --   -0.05186   0.02463   0.05998   0.07845   0.09296
 Alpha virt. eigenvalues --    0.10148   0.12998   0.13465   0.14161   0.15100
 Alpha virt. eigenvalues --    0.24971   0.27948   0.32286   0.35046   0.38372

 Mulliken charges:
               1
     1  C    0.010936
     2  C   -0.004856
     3  C    0.133941
     4  C    0.133941
     5  C   -0.004856
     6  C    0.010936
     7  H   -0.003966
     8  H    0.002245
     9  H    0.002245
    10  H   -0.003966
    11  O   -0.301524
    12  H    0.012463
    13  H    0.012463
 Sum of Mulliken charges =   0.00000

 Dipole moment (field-independent basis, Debye):
    X=              0.5365    Y=              0.0000    Z=             -1.0924  Tot=              1.2170
 Quadrupole moment (field-independent basis, Debye-Ang):
   XX=            -38.5985   YY=            -35.9551   ZZ=            -44.0093
   XY=              0.0000   XZ=              2.1760   YZ=              0.0000

 Normal termination of Gaussian 09 at Thu Oct  4 09:34:11 2018.
