 Gaussian 09, Revision E.01,
 Gaussian 09:  ES64L-G09RevE.01 30-Nov-2015

 --------------
 # opt bp86/SVP
 --------------

 ----------
 oxepin.log
 ----------
 Symbolic Z-matrix:
 Charge =  0 Multiplicity = 1

 SCF Done:  E(RB-P86) =  -307.172643391     A.U. after   15 cycles
 SCF Done:  E(RB-P86) =  -307.173495202     A.U. after   12 cycles
 SCF Done:  E(RB-P86) =  -307.173533746     A.U. after    9 cycles
 SCF Done:  E(RB-P86) =  -307.173571817     A.U. after   12 cycles
 SCF Done:  E(RB-P86) =  -307.173584864     A.U. after    9 cycles
 SCF Done:  E(RB-P86) =  -307.173595103     A.U. after   11 cycles
 SCF Done:  E(RB-P86) =  -307.173595450     A.U. after    8 cycles
 Optimization completed.
    -- Stationary point found.

                         Standard orientation:
 ---------------------------------------------------------------------
 Center     Atomic      Atomic             Coordinates (Angstroms)
 Number     Number       Type             X           Y           Z
 ---------------------------------------------------------------------
      1          6           0       -1.447327    0.685185    0.148605
      2          6           0       -0.310195    1.510350   -0.239426
      3          6           0        0.993522    1.151510   -0.127039
      4          6           0        0.993521   -1.151511   -0.127039
      5          6           0       -0.310196   -1.510349   -0.239426
      6          6           0       -1.447327   -0.685183    0.148605
      7          1           0       -2.395978    1.207634    0.360355
      8          1           0       -0.513494    2.499335   -0.685203
      9          1           0       -0.513496   -2.499334   -0.685203
     10          1           0       -2.395979   -1.207632    0.360356
     11          8           0        1.418034   -0.000001    0.532299
     12          1           0        1.821338   -1.783999   -0.497190
     13          1           0        1.821339    1.783998   -0.497190
 ---------------------------------------------------------------------

 The electronic state is 1-A.
 Alpha  occ. eigenvalues --  -18.80824  -9.97521  -9.97514  -9.92761  -9.92729
 Alpha  occ. eigenvalues --   -9.92271  -9.92265  -0.97098  -0.73610  -0.70807
 Alpha  occ. eigenvalues --   -0.62748  -0.59706  -0.50137  -0.49166  -0.46685
 Alpha  occ. eigenvalues --   -0.41498  -0.40630  -0.38824  -0.38027  -0.35050
 Alpha  occ. eigenvalues --   -0.31913  -0.28462  -0.25708  -0.24719  -0.18603
 Alpha virt. eigenvalues --   -0.08334  -0.01514   0.03843   0.04366   0.06381
 Alpha virt. eigenvalues --    0.08137   0.09220   0.11521   0.11681   0.12913
 Alpha virt. eigenvalues --    0.20083   0.24173   0.27436   0.31048   0.34290

 Mulliken charges:
               1
     1  C   -0.012914
     2  C   -0.014294
     3  C    0.087972
     4  C    0.087972
     5  C   -0.014293
     6  C   -0.012914
     7  H    0.016309
     8  H    0.023185
     9  H    0.023185
    10  H    0.016309
    11  O   -0.264312
    12  H    0.031898
    13  H    0.031898
 Sum of Mulliken charges =   0.00000

 Dipole moment (field-independent basis, Debye):
    X=             -0.5150    Y=              0.0000    Z=             -1.1448  Tot=              1.2553
 Quadrupole moment (field-independent basis, Debye-Ang):
   XX=            -38.3309   YY=            -35.9919   ZZ=            -44.0601
   XY=              0.0000   XZ=             -2.2079   YZ=              0.0000

 Normal termination of Gaussian 09 at Fri Oct  5 10:14:13 2018.
