 Gaussian 09, Revision E.01,
 Gaussian 09:  ES64L-G09RevE.01 30-Nov-2015

 ---------------
 # freq bp86/SVP
 ---------------

 ---------------
 oxepin-bp86.log
 ---------------
 Symbolic Z-matrix:
 Charge =  0 Multiplicity = 1

                         Standard orientation:
 ---------------------------------------------------------------------
 Center     Atomic      Atomic             Coordinates (Angstroms)
 Number     Number       Type             X           Y           Z
 ---------------------------------------------------------------------
      1          6           0        1.447319   -0.685208    0.148602
      2          6           0        0.310168   -1.510353   -0.239428
      3          6           0       -0.993537   -1.151496   -0.127038
      4          6           0       -0.993507    1.151524   -0.127038
      5          6           0        0.310218    1.510347   -0.239428
      6          6           0        1.447337    0.685162    0.148602
      7          1           0        2.395962   -1.207661    0.360352
      8          1           0        0.513455   -2.499336   -0.685198
      9          1           0        0.513531    2.499324   -0.685198
     10          1           0        2.395994    1.207599    0.360362
     11          8           0       -1.418032    0.000020    0.532302
     12          1           0       -1.821318    1.784025   -0.497188
     13          1           0       -1.821365   -1.783975   -0.497188
 ---------------------------------------------------------------------

 SCF Done:  E(RB-P86) =  -307.173595491     A.U. after   15 cycles

 The electronic state is 1-A.
 Alpha  occ. eigenvalues --  -18.80824  -9.97521  -9.97514  -9.92761  -9.92729
 Alpha  occ. eigenvalues --   -9.92271  -9.92265  -0.97098  -0.73610  -0.70807
 Alpha  occ. eigenvalues --   -0.62749  -0.59706  -0.50137  -0.49166  -0.46685
 Alpha  occ. eigenvalues --   -0.41498  -0.40630  -0.38824  -0.38027  -0.35050
 Alpha  occ. eigenvalues --   -0.31913  -0.28461  -0.25708  -0.24719  -0.18603
 Alpha virt. eigenvalues --   -0.08334  -0.01514   0.03844   0.04366   0.06381
 Alpha virt. eigenvalues --    0.08137   0.09220   0.11521   0.11681   0.12913
 Alpha virt. eigenvalues --    0.20083   0.24173   0.27436   0.31048   0.34290

 Mulliken charges:
               1
     1  C   -0.012912
     2  C   -0.014289
     3  C    0.087971
     4  C    0.087971
     5  C   -0.014292
     6  C   -0.012917
     7  H    0.016307
     8  H    0.023182
     9  H    0.023183
    10  H    0.016310
    11  O   -0.264311
    12  H    0.031899
    13  H    0.031898
 Sum of Mulliken charges =   0.00000

 Dipole moment (field-independent basis, Debye):
    X=              0.5150    Y=              0.0000    Z=             -1.1448  Tot=              1.2553
 Quadrupole moment (field-independent basis, Debye-Ang):
   XX=            -38.3308   YY=            -35.9919   ZZ=            -44.0601
   XY=              0.0000   XZ=              2.2080   YZ=              0.0000

  Exact polarizability:  81.217   0.000  81.686   4.370   0.000  34.605
 Approx polarizability: 183.856  -0.001 160.736   2.213   0.000  59.090

                      1                      2                      3
                      A                      A                      A
 Frequencies --    160.1535               231.1030               349.1411
 Red. masses --      4.2024                 2.6365                 3.8524
 Frc consts  --      0.0635                 0.0830                 0.2767
 IR Inten    --      4.6929                 1.8004                 8.8932

                      4                      5                      6
                      A                      A                      A
 Frequencies --    380.6089               437.3238               611.1676
 Red. masses --      2.6049                 5.1892                 3.5863
 Frc consts  --      0.2223                 0.5847                 0.7893
 IR Inten    --      8.5381                 0.9779                 0.4494

                      7                      8                      9
                      A                      A                      A
 Frequencies --    721.9727               728.8096               747.1184
 Red. masses --      1.4229                 1.4299                 2.1525
 Frc consts  --      0.4370                 0.4475                 0.7079
 IR Inten    --     79.9154                17.0030                 0.6586

                     10                     11                     12
                      A                      A                      A
 Frequencies --    812.3093               870.6225               892.6479
 Red. masses --      2.2762                 2.1778                 1.4134
 Frc consts  --      0.8849                 0.9726                 0.6636
 IR Inten    --      4.5881                 3.9831                 1.4261

                     13                     14                     15
                      A                      A                      A
 Frequencies --    905.6536               906.9184               950.4050
 Red. masses --      5.9551                 2.0209                 1.4461
 Frc consts  --      2.8778                 0.9793                 0.7696
 IR Inten    --      5.8287                 0.0573                 1.7455

                     16                     17                     18
                      A                      A                      A
 Frequencies --    964.4771               965.4705              1062.5527
 Red. masses --      2.2750                 2.2730                 1.9817
 Frc consts  --      1.2468                 1.2484                 1.3182
 IR Inten    --      8.1100                14.9125                58.0984

                     19                     20                     21
                      A                      A                      A
 Frequencies --   1179.3393              1183.1564              1216.3078
 Red. masses --      1.0776                 1.1493                 1.5250
 Frc consts  --      0.8830                 0.9479                 1.3292
 IR Inten    --      0.0765                 6.0826                41.9883

                     22                     23                     24
                      A                      A                      A
 Frequencies --   1303.9644              1369.4042              1406.6900
 Red. masses --      1.1694                 1.4959                 1.7679
 Frc consts  --      1.1715                 1.6528                 2.0612
 IR Inten    --      0.5472                 3.3762                 2.7680

                     25                     26                     27
                      A                      A                      A
 Frequencies --   1590.1306              1611.8330              1645.0056
 Red. masses --      8.5495                 6.6475                 5.5019
 Frc consts  --     12.7367                10.1753                 8.7720
 IR Inten    --      6.0040                13.7433                17.7281

                     28                     29                     30
                      A                      A                      A
 Frequencies --   3069.8113              3075.2530              3080.6594
 Red. masses --      1.0848                 1.0871                 1.0856
 Frc consts  --      6.0232                 6.0572                 6.0703
 IR Inten    --      8.7541                 5.3521                 0.9943

                     31                     32                     33
                      A                      A                      A
 Frequencies --   3093.4483              3097.0102              3103.7872
 Red. masses --      1.0953                 1.0960                 1.0980
 Frc consts  --      6.1754                 6.1939                 6.2322
 IR Inten    --     29.4210                31.2975                 3.2635

 - Thermochemistry -
 -------------------
 Temperature   298.150 Kelvin.  Pressure   1.00000 Atm.
 Atom     1 has atomic number  6 and mass  12.00000

 Molecular mass:    94.04186 amu.
 Principal axes and moments of inertia in atomic units:
                           1         2         3
     Eigenvalues --   457.89299 484.52097 882.14376
           X            0.99973   0.00001   0.02333
           Y           -0.00001   1.00000   0.00000
           Z           -0.02333   0.00000   0.99973
 This molecule is an asymmetric top.
 Rotational symmetry number  1.
 Warning -- assumption of classical behavior for rotation
           may cause significant error
 Rotational temperatures (Kelvin)      0.18916     0.17876     0.09819
 Rotational constants (GHZ):           3.94140     3.72479     2.04586
 Zero-point vibrational energy     261529.1 (Joules/Mol)
                                   62.50696 (Kcal/Mol)
 Warning -- explicit consideration of   6 degrees of freedom as
           vibrations may cause significant error
 Vibrational temperatures:    230.42   332.51   502.34   547.61   629.21
          (Kelvin)            879.33  1038.76  1048.59  1074.94  1168.73
                             1252.63  1284.32  1303.03  1304.85  1367.42
                             1387.67  1389.10  1528.77  1696.80  1702.30
                             1749.99  1876.11  1970.26  2023.91  2287.84
                             2319.07  2366.79  4416.77  4424.60  4432.38
                             4450.78  4455.90  4465.65

 Zero-point correction=                           0.099611 (Hartree/Particle)
 Thermal correction to Energy=                    0.105545
 Thermal correction to Enthalpy=                  0.106490
 Thermal correction to Gibbs Free Energy=         0.070191
 Sum of electronic and zero-point Energies=           -307.073984
 Sum of electronic and thermal Energies=              -307.068050
 Sum of electronic and thermal Enthalpies=            -307.067106
 Sum of electronic and thermal Free Energies=         -307.103404

                     E (Thermal)             CV                S
                      KCal/Mol        Cal/Mol-Kelvin    Cal/Mol-Kelvin
 Total                   66.231             22.831             76.396
 Electronic               0.000              0.000              0.000
 Translational            0.889              2.981             39.535
 Rotational               0.889              2.981             26.773
 Vibrational             64.453             16.870             10.088
 Vibration     1          0.622              1.891              2.548
 Vibration     2          0.653              1.793              1.870
 Vibration     3          0.726              1.577              1.170
 Vibration     4          0.750              1.512              1.037
 Vibration     5          0.798              1.389              0.835
 Vibration     6          0.970              1.008              0.431

 Optimization completed.
    -- Stationary point found.
 Normal termination of Gaussian 09 at Fri Oct  5 10:19:15 2018.
