 Gaussian 09, Revision E.01,
 Gaussian 09:  ES64L-G09RevE.01 30-Nov-2015

 ----------------
 # freq b3lyp/svp
 ----------------

 ----------
 oxepin.log
 ----------
 Symbolic Z-matrix:
 Charge =  0 Multiplicity = 1

                         Standard orientation:
 ---------------------------------------------------------------------
 Center     Atomic      Atomic             Coordinates (Angstroms)
 Number     Number       Type             X           Y           Z
 ---------------------------------------------------------------------
      1          6           0       -1.445640    0.678163    0.141390
      2          6           0       -0.306427    1.509955   -0.232430
      3          6           0        0.986232    1.161025   -0.115280
      4          6           0        0.985859   -1.161325   -0.115280
      5          6           0       -0.306902   -1.509865   -0.232430
      6          6           0       -1.445850   -0.677717    0.141390
      7          1           0       -2.383083    1.198411    0.363050
      8          1           0       -0.511461    2.497155   -0.658560
      9          1           0       -0.512248   -2.496995   -0.658560
     10          1           0       -2.383456   -1.197669    0.363050
     11          8           0        1.422440   -0.000220    0.496340
     12          1           0        1.803264   -1.809086   -0.451930
     13          1           0        1.803827    1.808524   -0.451930
 ---------------------------------------------------------------------

 SCF Done:  E(RB3LYP) =  -307.175859045     A.U. after   14 cycles

 The electronic state is 1-A.
 Alpha  occ. eigenvalues --  -19.16090 -10.24888 -10.24883 -10.19852 -10.19794
 Alpha  occ. eigenvalues --  -10.19315 -10.19309  -1.05952  -0.81026  -0.78178
 Alpha  occ. eigenvalues --   -0.69628  -0.65970  -0.55787  -0.54661  -0.52091
 Alpha  occ. eigenvalues --   -0.46515  -0.45639  -0.43727  -0.42729  -0.39591
 Alpha  occ. eigenvalues --   -0.36021  -0.32167  -0.30540  -0.28027  -0.21057
 Alpha virt. eigenvalues --   -0.05186   0.02463   0.05997   0.07845   0.09297
 Alpha virt. eigenvalues --    0.10148   0.12998   0.13465   0.14161   0.15100
 Alpha virt. eigenvalues --    0.24971   0.27948   0.32286   0.35046   0.38372

 Mulliken charges:
               1
     1  C    0.010937
     2  C   -0.004861
     3  C    0.133943
     4  C    0.133936
     5  C   -0.004852
     6  C    0.010934
     7  H   -0.003964
     8  H    0.002245
     9  H    0.002244
    10  H   -0.003965
    11  O   -0.301521
    12  H    0.012464
    13  H    0.012461
 Sum of Mulliken charges =   0.00000

 Dipole moment (field-independent basis, Debye):
    X=             -0.5365    Y=              0.0001    Z=             -1.0923  Tot=              1.2170
 Quadrupole moment (field-independent basis, Debye-Ang):
   XX=            -38.5985   YY=            -35.9551   ZZ=            -44.0093
   XY=              0.0005   XZ=             -2.1759   YZ=              0.0003

  Exact polarizability:  78.369   0.000  77.787  -3.553   0.001  33.340
 Approx polarizability: 137.287  -0.003 119.795  -0.848   0.000  50.732

                      1                      2                      3
                      A                      A                      A
 Frequencies --    161.5890               254.0509               368.3251
 Red. masses --      4.1012                 2.7056                 4.9288
 Frc consts  --      0.0631                 0.1029                 0.3940
 IR Inten    --      5.3361                 1.4966                 5.5744

                      4                      5                      6
                      A                      A                      A
 Frequencies --    400.1056               452.6736               631.6954
 Red. masses --      2.2072                 5.2126                 3.4310
 Frc consts  --      0.2082                 0.6293                 0.8067
 IR Inten    --     16.6238                 1.0021                 0.3600

                      7                      8                      9
                      A                      A                      A
 Frequencies --    752.8995               763.7837               778.5768
 Red. masses --      1.4627                 1.4202                 2.0712
 Frc consts  --      0.4885                 0.4881                 0.7397
 IR Inten    --     73.7613                15.8289                 0.7440

                     10                     11                     12
                      A                      A                      A
 Frequencies --    845.0450               912.3567               919.2237
 Red. masses --      2.4625                 3.3898                 5.3927
 Frc consts  --      1.0361                 1.6625                 2.6847
 IR Inten    --      5.5055                 3.8385                 6.9896

                     13                     14                     15
                      A                      A                      A
 Frequencies --    946.4977               950.4379               982.6139
 Red. masses --      1.4756                 1.5179                 2.4808
 Frc consts  --      0.7788                 0.8079                 1.4113
 IR Inten    --      2.6162                 0.0186                 5.9480

                     16                     17                     18
                      A                      A                      A
 Frequencies --    988.5666              1004.0314              1101.2328
 Red. masses --      2.2107                 1.3507                 2.0484
 Frc consts  --      1.2729                 0.8022                 1.4636
 IR Inten    --     14.2706                 1.1730                67.3837

                     19                     20                     21
                      A                      A                      A
 Frequencies --   1219.4281              1228.6349              1270.0714
 Red. masses --      1.0851                 1.1299                 1.5623
 Frc consts  --      0.9507                 1.0050                 1.4848
 IR Inten    --      0.3906                 5.4847                52.1914

                     22                     23                     24
                      A                      A                      A
 Frequencies --   1355.8382              1418.7984              1451.0105
 Red. masses --      1.1718                 1.4754                 1.7236
 Frc consts  --      1.2691                 1.7498                 2.1381
 IR Inten    --      0.2786                 2.5195                 2.9854

                     25                     26                     27
                      A                      A                      A
 Frequencies --   1657.3937              1675.8952              1712.9859
 Red. masses --      8.2924                 6.5775                 5.5995
 Frc consts  --     13.4209                10.8844                 9.6808
 IR Inten    --      6.7624                15.2795                22.8199

                     28                     29                     30
                      A                      A                      A
 Frequencies --   3153.4093              3160.1624              3160.3255
 Red. masses --      1.0833                 1.0861                 1.0865
 Frc consts  --      6.3470                 6.3906                 6.3934
 IR Inten    --      1.5774                 0.3005                 1.4783

                     31                     32                     33
                      A                      A                      A
 Frequencies --   3173.6820              3179.2525              3184.0346
 Red. masses --      1.0962                 1.0982                 1.0997
 Frc consts  --      6.5053                 6.5400                 6.5687
 IR Inten    --     33.4433                35.4671                 1.2572

 - Thermochemistry -
 -------------------
 Temperature   298.150 Kelvin.  Pressure   1.00000 Atm.
 Atom     1 has atomic number  6 and mass  12.00000

 Molecular mass:    94.04186 amu.
 Principal axes and moments of inertia in atomic units:
                           1         2         3
     Eigenvalues --   455.91185 479.11909 881.42244
           X            0.99976   0.00009  -0.02206
           Y           -0.00009   1.00000   0.00000
           Z            0.02206   0.00000   0.99976
 This molecule is an asymmetric top.
 Rotational symmetry number  1.
 Warning -- assumption of classical behavior for rotation
           may cause significant error
 Rotational temperatures (Kelvin)      0.18998     0.18078     0.09827
 Rotational constants (GHZ):           3.95853     3.76679     2.04753
 Zero-point vibrational energy     270443.5 (Joules/Mol)
                                   64.63756 (Kcal/Mol)
 Warning -- explicit consideration of   5 degrees of freedom as
           vibrations may cause significant error
 Vibrational temperatures:    232.49   365.52   529.94   575.66   651.30
          (Kelvin)            908.87  1083.25  1098.91  1120.20  1215.83
                             1312.68  1322.56  1361.80  1367.47  1413.76
                             1422.33  1444.58  1584.43  1754.48  1767.73
                             1827.35  1950.75  2041.33  2087.68  2384.62
                             2411.24  2464.60  4537.05  4546.76  4547.00
                             4566.21  4574.23  4581.11

 Zero-point correction=                           0.103007 (Hartree/Particle)
 Thermal correction to Energy=                    0.108735
 Thermal correction to Enthalpy=                  0.109679
 Thermal correction to Gibbs Free Energy=         0.073727
 Sum of electronic and zero-point Energies=           -307.072853
 Sum of electronic and thermal Energies=              -307.067124
 Sum of electronic and thermal Enthalpies=            -307.066180
 Sum of electronic and thermal Free Energies=         -307.102132

                     E (Thermal)             CV                S
                      KCal/Mol        Cal/Mol-Kelvin    Cal/Mol-Kelvin
 Total                   68.232             21.887             75.667
 Electronic               0.000              0.000              0.000
 Translational            0.889              2.981             39.535
 Rotational               0.889              2.981             26.757
 Vibrational             66.455             15.925              9.375
 Vibration     1          0.622              1.890              2.531
 Vibration     2          0.665              1.756              1.702
 Vibration     3          0.741              1.537              1.087
 Vibration     4          0.766              1.470              0.962
 Vibration     5          0.811              1.355              0.788

 Optimization completed.
    -- Stationary point found.
 Normal termination of Gaussian 09 at Fri Oct  5 09:45:04 2018.
