 Gaussian 09, Revision E.01,
 Gaussian 09:  ES64L-G09RevE.01 30-Nov-2015

 ----------------------------------
 # opt=(ts,calcfc,noeigen) bp86/SVP
 ----------------------------------

 ------
 ts.log
 ------
 Symbolic Z-matrix:
 Charge =  0 Multiplicity = 1

 SCF Done:  E(RB-P86) =  -307.166324292     A.U. after   15 cycles

  Exact polarizability:   0.000   0.000   0.000   0.000   0.000   0.000
 Approx polarizability: 162.963   0.001 175.401 -14.846   0.000  64.536

 SCF Done:  E(RB-P86) =  -307.167004178     A.U. after   13 cycles
 SCF Done:  E(RB-P86) =  -307.167005146     A.U. after    8 cycles
 Optimization completed.
    -- Stationary point found.

                         Standard orientation:
 ---------------------------------------------------------------------
 Center     Atomic      Atomic             Coordinates (Angstroms)
 Number     Number       Type             X           Y           Z
 ---------------------------------------------------------------------
      1          6           0       -1.420901    0.705805    0.166317
      2          6           0       -0.306447    1.459664   -0.248606
      3          6           0        0.996221    0.938640   -0.225293
      4          6           0        0.996221   -0.938640   -0.225296
      5          6           0       -0.306446   -1.459663   -0.248609
      6          6           0       -1.420901   -0.705805    0.166316
      7          1           0       -2.389481    1.218796    0.287859
      8          1           0       -0.457668    2.454689   -0.700134
      9          1           0       -0.457667   -2.454687   -0.700139
     10          1           0       -2.389481   -1.218797    0.287857
     11          8           0        1.347351   -0.000001    0.748986
     12          1           0        1.844498   -1.430736   -0.738153
     13          1           0        1.844498    1.430738   -0.738149
 ---------------------------------------------------------------------

 The electronic state is 1-A.
 Alpha  occ. eigenvalues --  -18.80590  -9.98271  -9.98269  -9.92541  -9.92525
 Alpha  occ. eigenvalues --   -9.92261  -9.92256  -0.99244  -0.74118  -0.69459
 Alpha  occ. eigenvalues --   -0.62163  -0.58010  -0.51039  -0.47778  -0.47353
 Alpha  occ. eigenvalues --   -0.42112  -0.41181  -0.40054  -0.37688  -0.34072
 Alpha  occ. eigenvalues --   -0.32406  -0.30317  -0.24032  -0.21922  -0.21845
 Alpha virt. eigenvalues --   -0.05336  -0.04716   0.03617   0.05560   0.06779
 Alpha virt. eigenvalues --    0.07510   0.10794   0.11682   0.12533   0.13371
 Alpha virt. eigenvalues --    0.19172   0.25086   0.25699   0.27072   0.33881

 Mulliken charges:
               1
     1  C   -0.024319
     2  C    0.013344
     3  C    0.062018
     4  C    0.062018
     5  C    0.013344
     6  C   -0.024319
     7  H    0.014744
     8  H    0.018720
     9  H    0.018720
    10  H    0.014744
    11  O   -0.243218
    12  H    0.037102
    13  H    0.037102
 Sum of Mulliken charges =   0.00000

 Dipole moment (field-independent basis, Debye):
    X=             -0.3321    Y=              0.0000    Z=             -1.5681  Tot=              1.6029
 Quadrupole moment (field-independent basis, Debye-Ang):
   XX=            -37.9415   YY=            -36.6859   ZZ=            -44.1398
   XY=              0.0000   XZ=             -2.7237   YZ=              0.0000

 Normal termination of Gaussian 09 at Fri Oct  5 10:19:03 2018.
