 Gaussian 09, Revision E.01,
 Gaussian 09:  ES64L-G09RevE.01 30-Nov-2015

 ----------------
 # freq hf/sto-3g
 ----------------

 -------------
 ts-hf-sto.log
 -------------
 Symbolic Z-matrix:
 Charge =  0 Multiplicity = 1

                         Standard orientation:
 ---------------------------------------------------------------------
 Center     Atomic      Atomic             Coordinates (Angstroms)
 Number     Number       Type             X           Y           Z
 ---------------------------------------------------------------------
      1          6           0        0.199313   -1.403871    0.688490
      2          6           0       -0.247037   -0.307111    1.446090
      3          6           0       -0.247037    0.973449    0.945400
      4          6           0       -0.247037    0.973449   -0.945400
      5          6           0       -0.247037   -0.307111   -1.446090
      6          6           0        0.199313   -1.403871   -0.688490
      7          1           0        0.334133   -2.351711    1.195400
      8          1           0       -0.714057   -0.487321    2.405690
      9          1           0       -0.714057   -0.487321   -2.405690
     10          1           0        0.334133   -2.351711   -1.195400
     11          8           0        0.730773    1.368689    0.000000
     12          1           0       -0.774597    1.789469   -1.439060
     13          1           0       -0.774597    1.789469    1.439060
 ---------------------------------------------------------------------

 SCF Done:  E(RHF) =  -301.643573532     A.U. after   13 cycles

 The electronic state is 1-A'.
 Alpha  occ. eigenvalues --  -20.31457 -11.09341 -11.09289 -11.03101 -11.03075
 Alpha  occ. eigenvalues --  -11.03054 -11.03050  -1.35153  -1.05752  -0.98970
 Alpha  occ. eigenvalues --   -0.89788  -0.81399  -0.72974  -0.67251  -0.65263
 Alpha  occ. eigenvalues --   -0.58125  -0.57787  -0.54729  -0.51245  -0.47821
 Alpha  occ. eigenvalues --   -0.45656  -0.42064  -0.37334  -0.26480  -0.25923
 Alpha virt. eigenvalues --    0.25420   0.25495   0.44943   0.56477   0.59948
 Alpha virt. eigenvalues --    0.60079   0.65977   0.66137   0.74200   0.75077
 Alpha virt. eigenvalues --    0.80074   0.84509   0.90904   0.93625   1.04983

 Mulliken charges:
               1
     1  C   -0.062702
     2  C   -0.079981
     3  C    0.039045
     4  C    0.039045
     5  C   -0.079981
     6  C   -0.062702
     7  H    0.063563
     8  H    0.069804
     9  H    0.069804
    10  H    0.063563
    11  O   -0.204739
    12  H    0.072640
    13  H    0.072640
 Sum of Mulliken charges =   0.00000

 Dipole moment (field-independent basis, Debye):
    X=             -1.6057    Y=             -0.2566    Z=              0.0000  Tot=              1.6261
 Quadrupole moment (field-independent basis, Debye-Ang):
   XX=            -39.9088   YY=            -36.7219   ZZ=            -35.3948
   XY=             -2.4650   XZ=              0.0000   YZ=              0.0000

  Exact polarizability:  13.319  -6.036  47.392   0.000   0.000  49.313
 Approx polarizability:  13.142  -5.446  48.329   0.000   0.000  50.395

 ******    1 imaginary frequencies (negative Signs) ******

                      1                      2                      3
                     A'                     A'                     A"
 Frequencies --   -877.0814               320.8075               389.2289
 Red. masses --      5.9464                 5.2485                 3.2936
 Frc consts  --      2.6951                 0.3183                 0.2940
 IR Inten    --      0.1136                 1.8509                 0.6634
 Raman Activ --      9.4663                 2.5559                 1.3338

                      4                      5                      6
                     A'                     A"                     A"
 Frequencies --    517.1269               537.4912               762.9365
 Red. masses --      3.6131                 6.0413                 3.5938
 Frc consts  --      0.5693                 1.0283                 1.2325
 IR Inten    --      1.2128                 2.2042                 1.5278
 Raman Activ --      4.7740                 4.7380                 0.9918

                      7                      8                      9
                     A'                     A'                     A"
 Frequencies --    822.8086               841.1182               954.1008
 Red. masses --      2.0149                 1.7679                 1.2489
 Frc consts  --      0.8037                 0.7369                 0.6698
 IR Inten    --     10.1882                19.9360                10.0748
 Raman Activ --      3.3908                 6.2612                 5.1518

                     10                     11                     12
                     A'                     A"                     A'
 Frequencies --    975.2138              1026.8469              1116.8118
 Red. masses --      1.3459                 3.1772                 1.4137
 Frc consts  --      0.7542                 1.9738                 1.0389
 IR Inten    --      5.2453                 0.0009                 4.5205
 Raman Activ --      4.0059                 0.0832                 0.3667

                     13                     14                     15
                     A"                     A'                     A"
 Frequencies --   1126.5241              1141.6132              1182.6899
 Red. masses --      2.0365                 4.2453                 2.0490
 Frc consts  --      1.5227                 3.2598                 1.6886
 IR Inten    --      4.4178                 0.5900                 1.7658
 Raman Activ --      0.1547                33.3732                 0.7001

                     16                     17                     18
                     A"                     A'                     A"
 Frequencies --   1192.3271              1237.7108              1293.5846
 Red. masses --      1.3233                 1.7864                 1.6250
 Frc consts  --      1.1084                 1.6123                 1.6021
 IR Inten    --      0.3222                 1.7523                 2.7206
 Raman Activ --      0.0390                 2.4616                 2.8200

                     19                     20                     21
                     A'                     A"                     A'
 Frequencies --   1386.8613              1404.9085              1405.5063
 Red. masses --      1.1304                 1.2689                 1.4196
 Frc consts  --      1.2810                 1.4756                 1.6523
 IR Inten    --      0.3558                 0.7669                 2.6769
 Raman Activ --      9.6277                 6.7310                 8.7426

                     22                     23                     24
                     A'                     A"                     A'
 Frequencies --   1559.8430              1576.9181              1690.6056
 Red. masses --      3.9108                 1.3479                 1.8238
 Frc consts  --      5.6064                 1.9748                 3.0712
 IR Inten    --      6.7183                 2.7278                 4.4084
 Raman Activ --     16.6197                 1.0252                 0.9519

                     25                     26                     27
                     A"                     A"                     A'
 Frequencies --   1740.8505              1880.7558              1881.0943
 Red. masses --      2.1290                 5.9564                 4.1548
 Frc consts  --      3.8015                12.4135                 8.6620
 IR Inten    --      1.3355                 0.0495                10.3707
 Raman Activ --      1.7695                27.2737                11.8269

                     28                     29                     30
                     A"                     A'                     A"
 Frequencies --   3666.9542              3677.8113              3705.0259
 Red. masses --      1.0901                 1.0932                 1.0911
 Frc consts  --      8.6361                 8.7120                 8.8250
 IR Inten    --      0.4021                 8.0743                 0.0377
 Raman Activ --     27.1886                67.1201                50.8838

                     31                     32                     33
                     A'                     A"                     A'
 Frequencies --   3718.9209              3725.2177              3733.1296
 Red. masses --      1.0956                 1.0991                 1.1025
 Frc consts  --      8.9273                 8.9863                 9.0525
 IR Inten    --      0.8963                16.9178                 3.5731
 Raman Activ --     53.1470                31.3309               159.7189

 - Thermochemistry -
 -------------------
 Temperature   298.150 Kelvin.  Pressure   1.00000 Atm.
 Atom     1 has atomic number  6 and mass  12.00000

 Molecular mass:    94.04186 amu.
 Principal axes and moments of inertia in atomic units:
                           1         2         3
     Eigenvalues --   416.17830 482.57952 793.00727
           X            0.01521   0.00000   0.99988
           Y            0.99988   0.00000  -0.01521
           Z            0.00000   1.00000   0.00000
 This molecule is an asymmetric top.
 Rotational symmetry number  1.
 Rotational temperatures (Kelvin)      0.20812     0.17948     0.10922
 Rotational constants (GHZ):           4.33646     3.73978     2.27582
    1 imaginary frequencies ignored.
 Zero-point vibrational energy     312185.5 (Joules/Mol)
                                   74.61413 (Kcal/Mol)
 Warning -- explicit consideration of   4 degrees of freedom as
           vibrations may cause significant error
 Vibrational temperatures:    461.57   560.01   744.03   773.33  1097.69
          (Kelvin)           1183.84  1210.18  1372.74  1403.11  1477.40
                             1606.84  1620.81  1642.52  1701.62  1715.49
                             1780.79  1861.18  1995.38  2021.35  2022.21
                             2244.26  2268.83  2432.40  2504.69  2705.98
                             2706.47  5275.92  5291.54  5330.70  5350.69
                             5359.75  5371.13

 Zero-point correction=                           0.118905 (Hartree/Particle)
 Thermal correction to Energy=                    0.123373
 Thermal correction to Enthalpy=                  0.124317
 Thermal correction to Gibbs Free Energy=         0.090626
 Sum of electronic and zero-point Energies=           -301.524668
 Sum of electronic and thermal Energies=              -301.520201
 Sum of electronic and thermal Enthalpies=            -301.519257
 Sum of electronic and thermal Free Energies=         -301.552947

                     E (Thermal)             CV                S
                      KCal/Mol        Cal/Mol-Kelvin    Cal/Mol-Kelvin
 Total                   77.418             16.637             70.908
 Electronic               0.000              0.000              0.000
 Translational            0.889              2.981             39.535
 Rotational               0.889              2.981             26.568
 Vibrational             75.640             10.676              4.805
 Vibration     1          0.706              1.634              1.306
 Vibration     2          0.757              1.493              1.003
 Vibration     3          0.872              1.212              0.617
 Vibration     4          0.893              1.167              0.571

 Optimization completed.
    -- Stationary point found.
 Normal termination of Gaussian 09 at Fri Oct  5 10:43:45 2018.
