 Gaussian 09, Revision E.01,
 Gaussian 09:  ES64L-G09RevE.01 30-Nov-2015

 ------------------------------------
 # opt(ts, calcfc, noeigen) hf/6-31g*
 ------------------------------------

 ------
 ts.log
 ------
 Symbolic Z-matrix:
 Charge =  0 Multiplicity = 1

 SCF Done:  E(RHF) =  -305.459109420     A.U. after   14 cycles

  Exact polarizability:   0.000   0.000   0.000   0.000   0.000   0.000
 Approx polarizability:  71.642   0.000  76.678  -6.955   0.000  33.057

 SCF Done:  E(RHF) =  -305.462274986     A.U. after   12 cycles
 SCF Done:  E(RHF) =  -305.462279576     A.U. after   10 cycles
 Optimization completed.
    -- Stationary point found.

                         Standard orientation:
 ---------------------------------------------------------------------
 Center     Atomic      Atomic             Coordinates (Angstroms)
 Number     Number       Type             X           Y           Z
 ---------------------------------------------------------------------
      1          6           0       -1.399853    0.697694    0.161470
      2          6           0       -0.302463    1.437853   -0.237608
      3          6           0        0.980438    0.909585   -0.229057
      4          6           0        0.980439   -0.909585   -0.229057
      5          6           0       -0.302463   -1.437853   -0.237608
      6          6           0       -1.399853   -0.697695    0.161470
      7          1           0       -2.346352    1.197437    0.270834
      8          1           0       -0.446144    2.415446   -0.663804
      9          1           0       -0.446143   -2.415446   -0.663804
     10          1           0       -2.346352   -1.197437    0.270834
     11          8           0        1.328625    0.000000    0.734581
     12          1           0        1.809260   -1.392536   -0.714188
     13          1           0        1.809259    1.392536   -0.714188
 ---------------------------------------------------------------------

 The electronic state is 1-A.
 Alpha  occ. eigenvalues --  -20.59134 -11.30205 -11.30188 -11.23463 -11.23353
 Alpha  occ. eigenvalues --  -11.23105 -11.23101  -1.44912  -1.11352  -1.04617
 Alpha  occ. eigenvalues --   -0.94612  -0.87905  -0.79054  -0.73116  -0.71700
 Alpha  occ. eigenvalues --   -0.65112  -0.63278  -0.62852  -0.58316  -0.53352
 Alpha  occ. eigenvalues --   -0.51758  -0.47873  -0.45435  -0.32095  -0.31890
 Alpha virt. eigenvalues --    0.13326   0.14758   0.23631   0.27835   0.28743
 Alpha virt. eigenvalues --    0.30354   0.32736   0.33536   0.35910   0.36967
 Alpha virt. eigenvalues --    0.46059   0.49148   0.50398   0.51463   0.68022

 Mulliken charges:
               1
     1  C   -0.204112
     2  C   -0.177428
     3  C    0.039239
     4  C    0.039240
     5  C   -0.177428
     6  C   -0.204112
     7  H    0.196041
     8  H    0.206117
     9  H    0.206117
    10  H    0.196041
    11  O   -0.526477
    12  H    0.203382
    13  H    0.203382
 Sum of Mulliken charges =   0.00000

 Dipole moment (field-independent basis, Debye):
    X=             -0.4080    Y=              0.0000    Z=             -1.8964  Tot=              1.9398
 Quadrupole moment (field-independent basis, Debye-Ang):
   XX=            -37.5218   YY=            -35.9891   ZZ=            -44.6528
   XY=              0.0000   XZ=             -3.3869   YZ=              0.0000

 Normal termination of Gaussian 09 at Thu Oct  4 09:08:16 2018.
