 Gaussian 09, Revision E.01,
 Gaussian 09:  ES64L-G09RevE.01 30-Nov-2015

 ----------------------------------
 # opt=(ts,calcfc,noeigen) hf/3-21g
 ----------------------------------

 ---------
 ts-hf.log
 ---------
 Symbolic Z-matrix:
 Charge =  0 Multiplicity = 1

 SCF Done:  E(RHF) =  -303.746967914     A.U. after   13 cycles

  Exact polarizability:   0.000   0.000   0.000   0.000   0.000   0.000
 Approx polarizability:  23.790  -7.773  66.204   0.000   0.000  70.846

 SCF Done:  E(RHF) =  -303.751415522     A.U. after   12 cycles
 SCF Done:  E(RHF) =  -303.751527192     A.U. after   12 cycles
 SCF Done:  E(RHF) =  -303.751528564     A.U. after    9 cycles
 Optimization completed.
    -- Stationary point found.

                         Standard orientation:
 ---------------------------------------------------------------------
 Center     Atomic      Atomic             Coordinates (Angstroms)
 Number     Number       Type             X           Y           Z
 ---------------------------------------------------------------------
      1          6           0       -0.337636   -1.363330    0.701809
      2          6           0       -0.337636   -0.207261    1.436858
      3          6           0        0.102105    1.004420    0.910391
      4          6           0        0.102105    1.004420   -0.910391
      5          6           0       -0.337636   -0.207261   -1.436858
      6          6           0       -0.337636   -1.363330   -0.701809
      7          1           0       -0.565379   -2.288252    1.195481
      8          1           0       -0.761829   -0.205480    2.422672
      9          1           0       -0.761829   -0.205480   -2.422672
     10          1           0       -0.565379   -2.288252   -1.195481
     11          8           0        1.206821    0.986169    0.000000
     12          1           0       -0.061075    1.946081   -1.388897
     13          1           0       -0.061075    1.946081    1.388897
 ---------------------------------------------------------------------

 The electronic state is 1-A'.
 Alpha  occ. eigenvalues --  -20.48746 -11.25335 -11.25331 -11.18380 -11.18339
 Alpha  occ. eigenvalues --  -11.18236 -11.18208  -1.42091  -1.12451  -1.05158
 Alpha  occ. eigenvalues --   -0.95424  -0.87970  -0.79554  -0.73617  -0.70466
 Alpha  occ. eigenvalues --   -0.64915  -0.63841  -0.61853  -0.56912  -0.53296
 Alpha  occ. eigenvalues --   -0.52615  -0.48869  -0.45496  -0.33360  -0.32699
 Alpha virt. eigenvalues --    0.12452   0.14847   0.25420   0.30375   0.31255
 Alpha virt. eigenvalues --    0.31662   0.35598   0.36311   0.38352   0.38656
 Alpha virt. eigenvalues --    0.45718   0.50637   0.53637   0.54285   0.73203

 Mulliken charges:
               1
     1  C   -0.227030
     2  C   -0.231894
     3  C   -0.009216
     4  C   -0.009216
     5  C   -0.231894
     6  C   -0.227030
     7  H    0.240906
     8  H    0.249710
     9  H    0.249710
    10  H    0.240906
    11  O   -0.540084
    12  H    0.247565
    13  H    0.247565
 Sum of Mulliken charges =   0.00000

 Dipole moment (field-independent basis, Debye):
    X=             -2.5962    Y=              0.1827    Z=              0.0000  Tot=              2.6026
 Quadrupole moment (field-independent basis, Debye-Ang):
   XX=            -47.8992   YY=            -36.1476   ZZ=            -35.9231
   XY=             -0.5762   XZ=              0.0000   YZ=              0.0000

 Normal termination of Gaussian 09 at Fri Oct  5 10:55:47 2018.
